n -t * -s 0  -x 100 -y 400 -Z 0 -z 30  -v circle -c black
n -t * -s 1  -x 50 -y 250 -Z 0 -z 30  -v circle -c black
n -t * -s 2  -x 200 -y 300 -Z 0 -z 30  -v circle -c black
n -t * -s 3  -x 100 -y 100 -Z 0 -z 30  -v circle -c black
n -t * -s 4  -x 200 -y 200 -Z 0 -z 30  -v circle -c black
n -t * -s 5  -x 300 -y 200 -Z 0 -z 30  -v circle -c black
n -t * -s 6  -x 300 -y 300 -Z 0 -z 30  -v circle -c black
n -t * -s 7  -x 400 -y 300 -Z 0 -z 30  -v circle -c black
n -t * -s 8  -x 400 -y 200 -Z 0 -z 30  -v circle -c black
V -t * -v 1.0a5 -a 0
W -t * -x 600 -y 500
A -t * -n 1 -p 0 -o 0x7fffffff -c 30 -a 1
A -t * -h 1 -m 1073741823 -s 0
+ -t 0.500000000 -s 0 -d -1 -p cbr -e 512 -c 2 -a 0 -i 0 -k AGT 
- -t 0.500000000 -s 0 -d -1 -p cbr -e 512 -c 2 -a 0 -i 0 -k AGT
h -t 0.500000000 -s 0 -d -1 -p cbr -e 512 -c 2 -a 0 -i 0 -k AGT
+ -t 0.509142857 -s 0 -d -1 -p cbr -e 512 -c 2 -a 0 -i 1 -k AGT 
- -t 0.509142857 -s 0 -d -1 -p cbr -e 512 -c 2 -a 0 -i 1 -k AGT
h -t 0.509142857 -s 0 -d -1 -p cbr -e 512 -c 2 -a 0 -i 1 -k AGT
+ -t 0.518285714 -s 0 -d -1 -p cbr -e 512 -c 2 -a 0 -i 2 -k AGT 
- -t 0.518285714 -s 0 -d -1 -p cbr -e 512 -c 2 -a 0 -i 2 -k AGT
h -t 0.518285714 -s 0 -d -1 -p cbr -e 512 -c 2 -a 0 -i 2 -k AGT
+ -t 0.527428571 -s 0 -d -1 -p cbr -e 512 -c 2 -a 0 -i 3 -k AGT 
- -t 0.527428571 -s 0 -d -1 -p cbr -e 512 -c 2 -a 0 -i 3 -k AGT
h -t 0.527428571 -s 0 -d -1 -p cbr -e 512 -c 2 -a 0 -i 3 -k AGT
r -t 0.531271431 -s 7 -d 7 -p cbr -e 532 -c 2 -a 0 -i 0 -k AGT
+ -t 0.536571429 -s 0 -d -1 -p cbr -e 512 -c 2 -a 0 -i 4 -k AGT 
- -t 0.536571429 -s 0 -d -1 -p cbr -e 512 -c 2 -a 0 -i 4 -k AGT
h -t 0.536571429 -s 0 -d -1 -p cbr -e 512 -c 2 -a 0 -i 4 -k AGT
+ -t 0.545714286 -s 0 -d -1 -p cbr -e 512 -c 2 -a 0 -i 5 -k AGT 
- -t 0.545714286 -s 0 -d -1 -p cbr -e 512 -c 2 -a 0 -i 5 -k AGT
h -t 0.545714286 -s 0 -d -1 -p cbr -e 512 -c 2 -a 0 -i 5 -k AGT
r -t 0.549803939 -s 7 -d 7 -p cbr -e 532 -c 2 -a 0 -i 3 -k AGT
+ -t 0.554857143 -s 0 -d -1 -p cbr -e 512 -c 2 -a 0 -i 6 -k AGT 
- -t 0.554857143 -s 0 -d -1 -p cbr -e 512 -c 2 -a 0 -i 6 -k AGT
h -t 0.554857143 -s 0 -d -1 -p cbr -e 512 -c 2 -a 0 -i 6 -k AGT
r -t 0.555766920 -s 7 -d 7 -p cbr -e 532 -c 2 -a 0 -i 1 -k AGT
+ -t 0.564000000 -s 0 -d -1 -p cbr -e 512 -c 2 -a 0 -i 7 -k AGT 
- -t 0.564000000 -s 0 -d -1 -p cbr -e 512 -c 2 -a 0 -i 7 -k AGT
h -t 0.564000000 -s 0 -d -1 -p cbr -e 512 -c 2 -a 0 -i 7 -k AGT
+ -t 0.573142857 -s 0 -d -1 -p cbr -e 512 -c 2 -a 0 -i 8 -k AGT 
- -t 0.573142857 -s 0 -d -1 -p cbr -e 512 -c 2 -a 0 -i 8 -k AGT
h -t 0.573142857 -s 0 -d -1 -p cbr -e 512 -c 2 -a 0 -i 8 -k AGT
r -t 0.579842409 -s 7 -d 7 -p cbr -e 532 -c 2 -a 0 -i 4 -k AGT
+ -t 0.582285714 -s 0 -d -1 -p cbr -e 512 -c 2 -a 0 -i 9 -k AGT 
- -t 0.582285714 -s 0 -d -1 -p cbr -e 512 -c 2 -a 0 -i 9 -k AGT
h -t 0.582285714 -s 0 -d -1 -p cbr -e 512 -c 2 -a 0 -i 9 -k AGT
r -t 0.585705390 -s 7 -d 7 -p cbr -e 532 -c 2 -a 0 -i 2 -k AGT
+ -t 0.591428571 -s 0 -d -1 -p cbr -e 512 -c 2 -a 0 -i 10 -k AGT 
- -t 0.591428571 -s 0 -d -1 -p cbr -e 512 -c 2 -a 0 -i 10 -k AGT
h -t 0.591428571 -s 0 -d -1 -p cbr -e 512 -c 2 -a 0 -i 10 -k AGT
r -t 0.591848372 -s 7 -d 7 -p cbr -e 532 -c 2 -a 0 -i 5 -k AGT
+ -t 0.600571429 -s 0 -d -1 -p cbr -e 512 -c 2 -a 0 -i 11 -k AGT 
- -t 0.600571429 -s 0 -d -1 -p cbr -e 512 -c 2 -a 0 -i 11 -k AGT
h -t 0.600571429 -s 0 -d -1 -p cbr -e 512 -c 2 -a 0 -i 11 -k AGT
+ -t 0.609714286 -s 0 -d -1 -p cbr -e 512 -c 2 -a 0 -i 12 -k AGT 
- -t 0.609714286 -s 0 -d -1 -p cbr -e 512 -c 2 -a 0 -i 12 -k AGT
h -t 0.609714286 -s 0 -d -1 -p cbr -e 512 -c 2 -a 0 -i 12 -k AGT
r -t 0.610200880 -s 7 -d 7 -p cbr -e 532 -c 2 -a 0 -i 6 -k AGT
r -t 0.616203861 -s 7 -d 7 -p cbr -e 532 -c 2 -a 0 -i 7 -k AGT
+ -t 0.618857143 -s 0 -d -1 -p cbr -e 512 -c 2 -a 0 -i 13 -k AGT 
- -t 0.618857143 -s 0 -d -1 -p cbr -e 512 -c 2 -a 0 -i 13 -k AGT
h -t 0.618857143 -s 0 -d -1 -p cbr -e 512 -c 2 -a 0 -i 13 -k AGT
+ -t 0.628000000 -s 0 -d -1 -p cbr -e 512 -c 2 -a 0 -i 14 -k AGT 
- -t 0.628000000 -s 0 -d -1 -p cbr -e 512 -c 2 -a 0 -i 14 -k AGT
h -t 0.628000000 -s 0 -d -1 -p cbr -e 512 -c 2 -a 0 -i 14 -k AGT
r -t 0.628273387 -s 7 -d 7 -p cbr -e 532 -c 2 -a 0 -i 8 -k AGT
+ -t 0.637142857 -s 0 -d -1 -p cbr -e 512 -c 2 -a 0 -i 15 -k AGT 
- -t 0.637142857 -s 0 -d -1 -p cbr -e 512 -c 2 -a 0 -i 15 -k AGT
h -t 0.637142857 -s 0 -d -1 -p cbr -e 512 -c 2 -a 0 -i 15 -k AGT
+ -t 0.646285714 -s 0 -d -1 -p cbr -e 512 -c 2 -a 0 -i 16 -k AGT 
- -t 0.646285714 -s 0 -d -1 -p cbr -e 512 -c 2 -a 0 -i 16 -k AGT
h -t 0.646285714 -s 0 -d -1 -p cbr -e 512 -c 2 -a 0 -i 16 -k AGT
r -t 0.652408876 -s 7 -d 7 -p cbr -e 532 -c 2 -a 0 -i 9 -k AGT
+ -t 0.655428571 -s 0 -d -1 -p cbr -e 512 -c 2 -a 0 -i 17 -k AGT 
- -t 0.655428571 -s 0 -d -1 -p cbr -e 512 -c 2 -a 0 -i 17 -k AGT
h -t 0.655428571 -s 0 -d -1 -p cbr -e 512 -c 2 -a 0 -i 17 -k AGT
r -t 0.664538402 -s 7 -d 7 -p cbr -e 532 -c 2 -a 0 -i 10 -k AGT
+ -t 0.664571429 -s 0 -d -1 -p cbr -e 512 -c 2 -a 0 -i 18 -k AGT 
- -t 0.664571429 -s 0 -d -1 -p cbr -e 512 -c 2 -a 0 -i 18 -k AGT
h -t 0.664571429 -s 0 -d -1 -p cbr -e 512 -c 2 -a 0 -i 18 -k AGT
r -t 0.670781384 -s 7 -d 7 -p cbr -e 532 -c 2 -a 0 -i 11 -k AGT
+ -t 0.673714286 -s 0 -d -1 -p cbr -e 512 -c 2 -a 0 -i 19 -k AGT 
- -t 0.673714286 -s 0 -d -1 -p cbr -e 512 -c 2 -a 0 -i 19 -k AGT
h -t 0.673714286 -s 0 -d -1 -p cbr -e 512 -c 2 -a 0 -i 19 -k AGT
r -t 0.676844365 -s 7 -d 7 -p cbr -e 532 -c 2 -a 0 -i 12 -k AGT
+ -t 0.682857143 -s 0 -d -1 -p cbr -e 512 -c 2 -a 0 -i 20 -k AGT 
- -t 0.682857143 -s 0 -d -1 -p cbr -e 512 -c 2 -a 0 -i 20 -k AGT
h -t 0.682857143 -s 0 -d -1 -p cbr -e 512 -c 2 -a 0 -i 20 -k AGT
r -t 0.689033892 -s 7 -d 7 -p cbr -e 532 -c 2 -a 0 -i 13 -k AGT
+ -t 0.692000000 -s 0 -d -1 -p cbr -e 512 -c 2 -a 0 -i 21 -k AGT 
- -t 0.692000000 -s 0 -d -1 -p cbr -e 512 -c 2 -a 0 -i 21 -k AGT
h -t 0.692000000 -s 0 -d -1 -p cbr -e 512 -c 2 -a 0 -i 21 -k AGT
+ -t 0.701142857 -s 0 -d -1 -p cbr -e 512 -c 2 -a 0 -i 22 -k AGT 
- -t 0.701142857 -s 0 -d -1 -p cbr -e 512 -c 2 -a 0 -i 22 -k AGT
h -t 0.701142857 -s 0 -d -1 -p cbr -e 512 -c 2 -a 0 -i 22 -k AGT
r -t 0.701603418 -s 7 -d 7 -p cbr -e 532 -c 2 -a 0 -i 14 -k AGT
+ -t 0.710285714 -s 0 -d -1 -p cbr -e 512 -c 2 -a 0 -i 23 -k AGT 
- -t 0.710285714 -s 0 -d -1 -p cbr -e 512 -c 2 -a 0 -i 23 -k AGT
h -t 0.710285714 -s 0 -d -1 -p cbr -e 512 -c 2 -a 0 -i 23 -k AGT
+ -t 0.719428571 -s 0 -d -1 -p cbr -e 512 -c 2 -a 0 -i 24 -k AGT 
- -t 0.719428571 -s 0 -d -1 -p cbr -e 512 -c 2 -a 0 -i 24 -k AGT
h -t 0.719428571 -s 0 -d -1 -p cbr -e 512 -c 2 -a 0 -i 24 -k AGT
r -t 0.719435925 -s 7 -d 7 -p cbr -e 532 -c 2 -a 0 -i 15 -k AGT
r -t 0.725618907 -s 7 -d 7 -p cbr -e 532 -c 2 -a 0 -i 16 -k AGT
+ -t 0.728571429 -s 0 -d -1 -p cbr -e 512 -c 2 -a 0 -i 25 -k AGT 
- -t 0.728571429 -s 0 -d -1 -p cbr -e 512 -c 2 -a 0 -i 25 -k AGT
h -t 0.728571429 -s 0 -d -1 -p cbr -e 512 -c 2 -a 0 -i 25 -k AGT
+ -t 0.737714286 -s 0 -d -1 -p cbr -e 512 -c 2 -a 0 -i 26 -k AGT 
- -t 0.737714286 -s 0 -d -1 -p cbr -e 512 -c 2 -a 0 -i 26 -k AGT
h -t 0.737714286 -s 0 -d -1 -p cbr -e 512 -c 2 -a 0 -i 26 -k AGT
+ -t 0.746857143 -s 0 -d -1 -p cbr -e 512 -c 2 -a 0 -i 27 -k AGT 
- -t 0.746857143 -s 0 -d -1 -p cbr -e 512 -c 2 -a 0 -i 27 -k AGT
h -t 0.746857143 -s 0 -d -1 -p cbr -e 512 -c 2 -a 0 -i 27 -k AGT
r -t 0.749834396 -s 7 -d 7 -p cbr -e 532 -c 2 -a 0 -i 17 -k AGT
+ -t 0.756000000 -s 0 -d -1 -p cbr -e 512 -c 2 -a 0 -i 28 -k AGT 
- -t 0.756000000 -s 0 -d -1 -p cbr -e 512 -c 2 -a 0 -i 28 -k AGT
h -t 0.756000000 -s 0 -d -1 -p cbr -e 512 -c 2 -a 0 -i 28 -k AGT
r -t 0.756177377 -s 7 -d 7 -p cbr -e 532 -c 2 -a 0 -i 18 -k AGT
r -t 0.762500359 -s 7 -d 7 -p cbr -e 532 -c 2 -a 0 -i 19 -k AGT
+ -t 0.765142857 -s 0 -d -1 -p cbr -e 512 -c 2 -a 0 -i 29 -k AGT 
- -t 0.765142857 -s 0 -d -1 -p cbr -e 512 -c 2 -a 0 -i 29 -k AGT
h -t 0.765142857 -s 0 -d -1 -p cbr -e 512 -c 2 -a 0 -i 29 -k AGT
+ -t 0.774285714 -s 0 -d -1 -p cbr -e 512 -c 2 -a 0 -i 30 -k AGT 
- -t 0.774285714 -s 0 -d -1 -p cbr -e 512 -c 2 -a 0 -i 30 -k AGT
h -t 0.774285714 -s 0 -d -1 -p cbr -e 512 -c 2 -a 0 -i 30 -k AGT
r -t 0.774469885 -s 7 -d 7 -p cbr -e 532 -c 2 -a 0 -i 20 -k AGT
+ -t 0.783428571 -s 0 -d -1 -p cbr -e 512 -c 2 -a 0 -i 31 -k AGT 
- -t 0.783428571 -s 0 -d -1 -p cbr -e 512 -c 2 -a 0 -i 31 -k AGT
h -t 0.783428571 -s 0 -d -1 -p cbr -e 512 -c 2 -a 0 -i 31 -k AGT
r -t 0.786939411 -s 7 -d 7 -p cbr -e 532 -c 2 -a 0 -i 21 -k AGT
+ -t 0.792571429 -s 0 -d -1 -p cbr -e 512 -c 2 -a 0 -i 32 -k AGT 
- -t 0.792571429 -s 0 -d -1 -p cbr -e 512 -c 2 -a 0 -i 32 -k AGT
h -t 0.792571429 -s 0 -d -1 -p cbr -e 512 -c 2 -a 0 -i 32 -k AGT
r -t 0.799248937 -s 7 -d 7 -p cbr -e 532 -c 2 -a 0 -i 22 -k AGT
+ -t 0.801714286 -s 0 -d -1 -p cbr -e 512 -c 2 -a 0 -i 33 -k AGT 
- -t 0.801714286 -s 0 -d -1 -p cbr -e 512 -c 2 -a 0 -i 33 -k AGT
h -t 0.801714286 -s 0 -d -1 -p cbr -e 512 -c 2 -a 0 -i 33 -k AGT
+ -t 0.810857143 -s 0 -d -1 -p cbr -e 512 -c 2 -a 0 -i 34 -k AGT 
- -t 0.810857143 -s 0 -d -1 -p cbr -e 512 -c 2 -a 0 -i 34 -k AGT
h -t 0.810857143 -s 0 -d -1 -p cbr -e 512 -c 2 -a 0 -i 34 -k AGT
+ -t 0.820000000 -s 0 -d -1 -p cbr -e 512 -c 2 -a 0 -i 35 -k AGT 
- -t 0.820000000 -s 0 -d -1 -p cbr -e 512 -c 2 -a 0 -i 35 -k AGT
h -t 0.820000000 -s 0 -d -1 -p cbr -e 512 -c 2 -a 0 -i 35 -k AGT
r -t 0.829087408 -s 7 -d 7 -p cbr -e 532 -c 2 -a 0 -i 23 -k AGT
+ -t 0.829142857 -s 0 -d -1 -p cbr -e 512 -c 2 -a 0 -i 36 -k AGT 
- -t 0.829142857 -s 0 -d -1 -p cbr -e 512 -c 2 -a 0 -i 36 -k AGT
h -t 0.829142857 -s 0 -d -1 -p cbr -e 512 -c 2 -a 0 -i 36 -k AGT
r -t 0.835190389 -s 7 -d 7 -p cbr -e 532 -c 2 -a 0 -i 24 -k AGT
+ -t 0.838285714 -s 0 -d -1 -p cbr -e 512 -c 2 -a 0 -i 37 -k AGT 
- -t 0.838285714 -s 0 -d -1 -p cbr -e 512 -c 2 -a 0 -i 37 -k AGT
h -t 0.838285714 -s 0 -d -1 -p cbr -e 512 -c 2 -a 0 -i 37 -k AGT
r -t 0.841213371 -s 7 -d 7 -p cbr -e 532 -c 2 -a 0 -i 25 -k AGT
+ -t 0.847428571 -s 0 -d -1 -p cbr -e 512 -c 2 -a 0 -i 38 -k AGT 
- -t 0.847428571 -s 0 -d -1 -p cbr -e 512 -c 2 -a 0 -i 38 -k AGT
h -t 0.847428571 -s 0 -d -1 -p cbr -e 512 -c 2 -a 0 -i 38 -k AGT
r -t 0.847476352 -s 7 -d 7 -p cbr -e 532 -c 2 -a 0 -i 26 -k AGT
+ -t 0.856571429 -s 0 -d -1 -p cbr -e 512 -c 2 -a 0 -i 39 -k AGT 
- -t 0.856571429 -s 0 -d -1 -p cbr -e 512 -c 2 -a 0 -i 39 -k AGT
h -t 0.856571429 -s 0 -d -1 -p cbr -e 512 -c 2 -a 0 -i 39 -k AGT
r -t 0.859865878 -s 7 -d 7 -p cbr -e 532 -c 2 -a 0 -i 27 -k AGT
+ -t 0.865714286 -s 0 -d -1 -p cbr -e 512 -c 2 -a 0 -i 40 -k AGT 
- -t 0.865714286 -s 0 -d -1 -p cbr -e 512 -c 2 -a 0 -i 40 -k AGT
h -t 0.865714286 -s 0 -d -1 -p cbr -e 512 -c 2 -a 0 -i 40 -k AGT
+ -t 0.874857143 -s 0 -d -1 -p cbr -e 512 -c 2 -a 0 -i 41 -k AGT 
- -t 0.874857143 -s 0 -d -1 -p cbr -e 512 -c 2 -a 0 -i 41 -k AGT
h -t 0.874857143 -s 0 -d -1 -p cbr -e 512 -c 2 -a 0 -i 41 -k AGT
r -t 0.878198386 -s 7 -d 7 -p cbr -e 532 -c 2 -a 0 -i 28 -k AGT
r -t 0.883961368 -s 7 -d 7 -p cbr -e 532 -c 2 -a 0 -i 29 -k AGT
+ -t 0.884000000 -s 0 -d -1 -p cbr -e 512 -c 2 -a 0 -i 42 -k AGT 
- -t 0.884000000 -s 0 -d -1 -p cbr -e 512 -c 2 -a 0 -i 42 -k AGT
h -t 0.884000000 -s 0 -d -1 -p cbr -e 512 -c 2 -a 0 -i 42 -k AGT
+ -t 0.893142857 -s 0 -d -1 -p cbr -e 512 -c 2 -a 0 -i 43 -k AGT 
- -t 0.893142857 -s 0 -d -1 -p cbr -e 512 -c 2 -a 0 -i 43 -k AGT
h -t 0.893142857 -s 0 -d -1 -p cbr -e 512 -c 2 -a 0 -i 43 -k AGT
r -t 0.896130894 -s 7 -d 7 -p cbr -e 532 -c 2 -a 0 -i 30 -k AGT
+ -t 0.902285714 -s 0 -d -1 -p cbr -e 512 -c 2 -a 0 -i 44 -k AGT 
- -t 0.902285714 -s 0 -d -1 -p cbr -e 512 -c 2 -a 0 -i 44 -k AGT
h -t 0.902285714 -s 0 -d -1 -p cbr -e 512 -c 2 -a 0 -i 44 -k AGT
r -t 0.908560420 -s 7 -d 7 -p cbr -e 532 -c 2 -a 0 -i 31 -k AGT
+ -t 0.911428571 -s 0 -d -1 -p cbr -e 512 -c 2 -a 0 -i 45 -k AGT 
- -t 0.911428571 -s 0 -d -1 -p cbr -e 512 -c 2 -a 0 -i 45 -k AGT
h -t 0.911428571 -s 0 -d -1 -p cbr -e 512 -c 2 -a 0 -i 45 -k AGT
+ -t 0.920571429 -s 0 -d -1 -p cbr -e 512 -c 2 -a 0 -i 46 -k AGT 
- -t 0.920571429 -s 0 -d -1 -p cbr -e 512 -c 2 -a 0 -i 46 -k AGT
h -t 0.920571429 -s 0 -d -1 -p cbr -e 512 -c 2 -a 0 -i 46 -k AGT
r -t 0.920749946 -s 7 -d 7 -p cbr -e 532 -c 2 -a 0 -i 32 -k AGT
+ -t 0.929714286 -s 0 -d -1 -p cbr -e 512 -c 2 -a 0 -i 47 -k AGT 
- -t 0.929714286 -s 0 -d -1 -p cbr -e 512 -c 2 -a 0 -i 47 -k AGT
h -t 0.929714286 -s 0 -d -1 -p cbr -e 512 -c 2 -a 0 -i 47 -k AGT
+ -t 0.938857143 -s 0 -d -1 -p cbr -e 512 -c 2 -a 0 -i 48 -k AGT 
- -t 0.938857143 -s 0 -d -1 -p cbr -e 512 -c 2 -a 0 -i 48 -k AGT
h -t 0.938857143 -s 0 -d -1 -p cbr -e 512 -c 2 -a 0 -i 48 -k AGT
+ -t 0.948000000 -s 0 -d -1 -p cbr -e 512 -c 2 -a 0 -i 49 -k AGT 
- -t 0.948000000 -s 0 -d -1 -p cbr -e 512 -c 2 -a 0 -i 49 -k AGT
h -t 0.948000000 -s 0 -d -1 -p cbr -e 512 -c 2 -a 0 -i 49 -k AGT
r -t 0.950428417 -s 7 -d 7 -p cbr -e 532 -c 2 -a 0 -i 33 -k AGT
r -t 0.956311398 -s 7 -d 7 -p cbr -e 532 -c 2 -a 0 -i 34 -k AGT
+ -t 0.957142857 -s 0 -d -1 -p cbr -e 512 -c 2 -a 0 -i 50 -k AGT 
- -t 0.957142857 -s 0 -d -1 -p cbr -e 512 -c 2 -a 0 -i 50 -k AGT
h -t 0.957142857 -s 0 -d -1 -p cbr -e 512 -c 2 -a 0 -i 50 -k AGT
r -t 0.962614380 -s 7 -d 7 -p cbr -e 532 -c 2 -a 0 -i 35 -k AGT
+ -t 0.966285714 -s 0 -d -1 -p cbr -e 512 -c 2 -a 0 -i 51 -k AGT 
- -t 0.966285714 -s 0 -d -1 -p cbr -e 512 -c 2 -a 0 -i 51 -k AGT
h -t 0.966285714 -s 0 -d -1 -p cbr -e 512 -c 2 -a 0 -i 51 -k AGT
r -t 0.968977361 -s 7 -d 7 -p cbr -e 532 -c 2 -a 0 -i 36 -k AGT
+ -t 0.975428571 -s 0 -d -1 -p cbr -e 512 -c 2 -a 0 -i 52 -k AGT 
- -t 0.975428571 -s 0 -d -1 -p cbr -e 512 -c 2 -a 0 -i 52 -k AGT
h -t 0.975428571 -s 0 -d -1 -p cbr -e 512 -c 2 -a 0 -i 52 -k AGT
+ -t 0.984571429 -s 0 -d -1 -p cbr -e 512 -c 2 -a 0 -i 53 -k AGT 
- -t 0.984571429 -s 0 -d -1 -p cbr -e 512 -c 2 -a 0 -i 53 -k AGT
h -t 0.984571429 -s 0 -d -1 -p cbr -e 512 -c 2 -a 0 -i 53 -k AGT
r -t 0.986729869 -s 7 -d 7 -p cbr -e 532 -c 2 -a 0 -i 37 -k AGT
r -t 0.992492850 -s 7 -d 7 -p cbr -e 532 -c 2 -a 0 -i 38 -k AGT
+ -t 0.993714286 -s 0 -d -1 -p cbr -e 512 -c 2 -a 0 -i 54 -k AGT 
- -t 0.993714286 -s 0 -d -1 -p cbr -e 512 -c 2 -a 0 -i 54 -k AGT
h -t 0.993714286 -s 0 -d -1 -p cbr -e 512 -c 2 -a 0 -i 54 -k AGT
+ -t 1.000000000 -s 3 -d -1 -p cbr -e 512 -c 2 -a 0 -i 55 -k AGT 
- -t 1.000000000 -s 3 -d -1 -p cbr -e 512 -c 2 -a 0 -i 55 -k AGT
h -t 1.000000000 -s 3 -d -1 -p cbr -e 512 -c 2 -a 0 -i 55 -k AGT
+ -t 1.002857143 -s 0 -d -1 -p cbr -e 512 -c 2 -a 0 -i 56 -k AGT 
- -t 1.002857143 -s 0 -d -1 -p cbr -e 512 -c 2 -a 0 -i 56 -k AGT
h -t 1.002857143 -s 0 -d -1 -p cbr -e 512 -c 2 -a 0 -i 56 -k AGT
+ -t 1.009142857 -s 3 -d -1 -p cbr -e 512 -c 2 -a 0 -i 57 -k AGT 
- -t 1.009142857 -s 3 -d -1 -p cbr -e 512 -c 2 -a 0 -i 57 -k AGT
h -t 1.009142857 -s 3 -d -1 -p cbr -e 512 -c 2 -a 0 -i 57 -k AGT
r -t 1.011834084 -s 7 -d 7 -p cbr -e 532 -c 2 -a 0 -i 39 -k AGT
+ -t 1.012000000 -s 0 -d -1 -p cbr -e 512 -c 2 -a 0 -i 58 -k AGT 
- -t 1.012000000 -s 0 -d -1 -p cbr -e 512 -c 2 -a 0 -i 58 -k AGT
h -t 1.012000000 -s 0 -d -1 -p cbr -e 512 -c 2 -a 0 -i 58 -k AGT
+ -t 1.018285714 -s 3 -d -1 -p cbr -e 512 -c 2 -a 0 -i 59 -k AGT 
- -t 1.018285714 -s 3 -d -1 -p cbr -e 512 -c 2 -a 0 -i 59 -k AGT
h -t 1.018285714 -s 3 -d -1 -p cbr -e 512 -c 2 -a 0 -i 59 -k AGT
r -t 1.019893732 -s 7 -d 7 -p cbr -e 532 -c 2 -a 0 -i 40 -k AGT
+ -t 1.021142857 -s 0 -d -1 -p cbr -e 512 -c 2 -a 0 -i 60 -k AGT 
- -t 1.021142857 -s 0 -d -1 -p cbr -e 512 -c 2 -a 0 -i 60 -k AGT
h -t 1.021142857 -s 0 -d -1 -p cbr -e 512 -c 2 -a 0 -i 60 -k AGT
+ -t 1.027428571 -s 3 -d -1 -p cbr -e 512 -c 2 -a 0 -i 61 -k AGT 
- -t 1.027428571 -s 3 -d -1 -p cbr -e 512 -c 2 -a 0 -i 61 -k AGT
h -t 1.027428571 -s 3 -d -1 -p cbr -e 512 -c 2 -a 0 -i 61 -k AGT
+ -t 1.030285714 -s 0 -d -1 -p cbr -e 512 -c 2 -a 0 -i 62 -k AGT 
- -t 1.030285714 -s 0 -d -1 -p cbr -e 512 -c 2 -a 0 -i 62 -k AGT
h -t 1.030285714 -s 0 -d -1 -p cbr -e 512 -c 2 -a 0 -i 62 -k AGT
r -t 1.032517342 -s 7 -d 7 -p cbr -e 532 -c 2 -a 0 -i 41 -k AGT
+ -t 1.036571429 -s 3 -d -1 -p cbr -e 512 -c 2 -a 0 -i 63 -k AGT 
- -t 1.036571429 -s 3 -d -1 -p cbr -e 512 -c 2 -a 0 -i 63 -k AGT
h -t 1.036571429 -s 3 -d -1 -p cbr -e 512 -c 2 -a 0 -i 63 -k AGT
+ -t 1.039428571 -s 0 -d -1 -p cbr -e 512 -c 2 -a 0 -i 64 -k AGT 
- -t 1.039428571 -s 0 -d -1 -p cbr -e 512 -c 2 -a 0 -i 64 -k AGT
h -t 1.039428571 -s 0 -d -1 -p cbr -e 512 -c 2 -a 0 -i 64 -k AGT
+ -t 1.045714286 -s 3 -d -1 -p cbr -e 512 -c 2 -a 0 -i 65 -k AGT 
- -t 1.045714286 -s 3 -d -1 -p cbr -e 512 -c 2 -a 0 -i 65 -k AGT
h -t 1.045714286 -s 3 -d -1 -p cbr -e 512 -c 2 -a 0 -i 65 -k AGT
+ -t 1.048571429 -s 0 -d -1 -p cbr -e 512 -c 2 -a 0 -i 66 -k AGT 
- -t 1.048571429 -s 0 -d -1 -p cbr -e 512 -c 2 -a 0 -i 66 -k AGT
h -t 1.048571429 -s 0 -d -1 -p cbr -e 512 -c 2 -a 0 -i 66 -k AGT
+ -t 1.054857143 -s 3 -d -1 -p cbr -e 512 -c 2 -a 0 -i 67 -k AGT 
- -t 1.054857143 -s 3 -d -1 -p cbr -e 512 -c 2 -a 0 -i 67 -k AGT
h -t 1.054857143 -s 3 -d -1 -p cbr -e 512 -c 2 -a 0 -i 67 -k AGT
+ -t 1.057714286 -s 0 -d -1 -p cbr -e 512 -c 2 -a 0 -i 68 -k AGT 
- -t 1.057714286 -s 0 -d -1 -p cbr -e 512 -c 2 -a 0 -i 68 -k AGT
h -t 1.057714286 -s 0 -d -1 -p cbr -e 512 -c 2 -a 0 -i 68 -k AGT
+ -t 1.064000000 -s 3 -d -1 -p cbr -e 512 -c 2 -a 0 -i 69 -k AGT 
- -t 1.064000000 -s 3 -d -1 -p cbr -e 512 -c 2 -a 0 -i 69 -k AGT
h -t 1.064000000 -s 3 -d -1 -p cbr -e 512 -c 2 -a 0 -i 69 -k AGT
+ -t 1.066857143 -s 0 -d -1 -p cbr -e 512 -c 2 -a 0 -i 70 -k AGT 
- -t 1.066857143 -s 0 -d -1 -p cbr -e 512 -c 2 -a 0 -i 70 -k AGT
h -t 1.066857143 -s 0 -d -1 -p cbr -e 512 -c 2 -a 0 -i 70 -k AGT
r -t 1.069432296 -s 8 -d 8 -p cbr -e 532 -c 2 -a 0 -i 55 -k AGT
+ -t 1.073142857 -s 3 -d -1 -p cbr -e 512 -c 2 -a 0 -i 71 -k AGT 
- -t 1.073142857 -s 3 -d -1 -p cbr -e 512 -c 2 -a 0 -i 71 -k AGT
h -t 1.073142857 -s 3 -d -1 -p cbr -e 512 -c 2 -a 0 -i 71 -k AGT
r -t 1.075595198 -s 7 -d 7 -p cbr -e 532 -c 2 -a 0 -i 42 -k AGT
+ -t 1.076000000 -s 0 -d -1 -p cbr -e 512 -c 2 -a 0 -i 72 -k AGT 
- -t 1.076000000 -s 0 -d -1 -p cbr -e 512 -c 2 -a 0 -i 72 -k AGT
h -t 1.076000000 -s 0 -d -1 -p cbr -e 512 -c 2 -a 0 -i 72 -k AGT
r -t 1.081737944 -s 8 -d 8 -p cbr -e 532 -c 2 -a 0 -i 65 -k AGT
+ -t 1.082285714 -s 3 -d -1 -p cbr -e 512 -c 2 -a 0 -i 73 -k AGT 
- -t 1.082285714 -s 3 -d -1 -p cbr -e 512 -c 2 -a 0 -i 73 -k AGT
h -t 1.082285714 -s 3 -d -1 -p cbr -e 512 -c 2 -a 0 -i 73 -k AGT
+ -t 1.085142857 -s 0 -d -1 -p cbr -e 512 -c 2 -a 0 -i 74 -k AGT 
- -t 1.085142857 -s 0 -d -1 -p cbr -e 512 -c 2 -a 0 -i 74 -k AGT
h -t 1.085142857 -s 0 -d -1 -p cbr -e 512 -c 2 -a 0 -i 74 -k AGT
+ -t 1.091428571 -s 3 -d -1 -p cbr -e 512 -c 2 -a 0 -i 75 -k AGT 
- -t 1.091428571 -s 3 -d -1 -p cbr -e 512 -c 2 -a 0 -i 75 -k AGT
h -t 1.091428571 -s 3 -d -1 -p cbr -e 512 -c 2 -a 0 -i 75 -k AGT
+ -t 1.094285714 -s 0 -d -1 -p cbr -e 512 -c 2 -a 0 -i 76 -k AGT 
- -t 1.094285714 -s 0 -d -1 -p cbr -e 512 -c 2 -a 0 -i 76 -k AGT
h -t 1.094285714 -s 0 -d -1 -p cbr -e 512 -c 2 -a 0 -i 76 -k AGT
r -t 1.099608298 -s 8 -d 8 -p cbr -e 532 -c 2 -a 0 -i 57 -k AGT
+ -t 1.100571429 -s 3 -d -1 -p cbr -e 512 -c 2 -a 0 -i 77 -k AGT 
- -t 1.100571429 -s 3 -d -1 -p cbr -e 512 -c 2 -a 0 -i 77 -k AGT
h -t 1.100571429 -s 3 -d -1 -p cbr -e 512 -c 2 -a 0 -i 77 -k AGT
+ -t 1.103428571 -s 0 -d -1 -p cbr -e 512 -c 2 -a 0 -i 78 -k AGT 
- -t 1.103428571 -s 0 -d -1 -p cbr -e 512 -c 2 -a 0 -i 78 -k AGT
h -t 1.103428571 -s 0 -d -1 -p cbr -e 512 -c 2 -a 0 -i 78 -k AGT
r -t 1.105750964 -s 8 -d 8 -p cbr -e 532 -c 2 -a 0 -i 67 -k AGT
+ -t 1.109714286 -s 3 -d -1 -p cbr -e 512 -c 2 -a 0 -i 79 -k AGT 
- -t 1.109714286 -s 3 -d -1 -p cbr -e 512 -c 2 -a 0 -i 79 -k AGT
h -t 1.109714286 -s 3 -d -1 -p cbr -e 512 -c 2 -a 0 -i 79 -k AGT
+ -t 1.112571429 -s 0 -d -1 -p cbr -e 512 -c 2 -a 0 -i 80 -k AGT 
- -t 1.112571429 -s 0 -d -1 -p cbr -e 512 -c 2 -a 0 -i 80 -k AGT
h -t 1.112571429 -s 0 -d -1 -p cbr -e 512 -c 2 -a 0 -i 80 -k AGT
r -t 1.117980638 -s 7 -d 7 -p cbr -e 532 -c 2 -a 0 -i 43 -k AGT
+ -t 1.118857143 -s 3 -d -1 -p cbr -e 512 -c 2 -a 0 -i 81 -k AGT 
- -t 1.118857143 -s 3 -d -1 -p cbr -e 512 -c 2 -a 0 -i 81 -k AGT
h -t 1.118857143 -s 3 -d -1 -p cbr -e 512 -c 2 -a 0 -i 81 -k AGT
+ -t 1.121714286 -s 0 -d -1 -p cbr -e 512 -c 2 -a 0 -i 82 -k AGT 
- -t 1.121714286 -s 0 -d -1 -p cbr -e 512 -c 2 -a 0 -i 82 -k AGT
h -t 1.121714286 -s 0 -d -1 -p cbr -e 512 -c 2 -a 0 -i 82 -k AGT
+ -t 1.128000000 -s 3 -d -1 -p cbr -e 512 -c 2 -a 0 -i 83 -k AGT 
- -t 1.128000000 -s 3 -d -1 -p cbr -e 512 -c 2 -a 0 -i 83 -k AGT
h -t 1.128000000 -s 3 -d -1 -p cbr -e 512 -c 2 -a 0 -i 83 -k AGT
+ -t 1.130857143 -s 0 -d -1 -p cbr -e 512 -c 2 -a 0 -i 84 -k AGT 
- -t 1.130857143 -s 0 -d -1 -p cbr -e 512 -c 2 -a 0 -i 84 -k AGT
h -t 1.130857143 -s 0 -d -1 -p cbr -e 512 -c 2 -a 0 -i 84 -k AGT
+ -t 1.137142857 -s 3 -d -1 -p cbr -e 512 -c 2 -a 0 -i 85 -k AGT 
- -t 1.137142857 -s 3 -d -1 -p cbr -e 512 -c 2 -a 0 -i 85 -k AGT
h -t 1.137142857 -s 3 -d -1 -p cbr -e 512 -c 2 -a 0 -i 85 -k AGT
+ -t 1.140000000 -s 0 -d -1 -p cbr -e 512 -c 2 -a 0 -i 86 -k AGT 
- -t 1.140000000 -s 0 -d -1 -p cbr -e 512 -c 2 -a 0 -i 86 -k AGT
h -t 1.140000000 -s 0 -d -1 -p cbr -e 512 -c 2 -a 0 -i 86 -k AGT
r -t 1.141883905 -s 8 -d 8 -p cbr -e 532 -c 2 -a 0 -i 59 -k AGT
+ -t 1.146285714 -s 3 -d -1 -p cbr -e 512 -c 2 -a 0 -i 87 -k AGT 
- -t 1.146285714 -s 3 -d -1 -p cbr -e 512 -c 2 -a 0 -i 87 -k AGT
h -t 1.146285714 -s 3 -d -1 -p cbr -e 512 -c 2 -a 0 -i 87 -k AGT
r -t 1.147826571 -s 8 -d 8 -p cbr -e 532 -c 2 -a 0 -i 69 -k AGT
+ -t 1.149142857 -s 0 -d -1 -p cbr -e 512 -c 2 -a 0 -i 88 -k AGT 
- -t 1.149142857 -s 0 -d -1 -p cbr -e 512 -c 2 -a 0 -i 88 -k AGT
h -t 1.149142857 -s 0 -d -1 -p cbr -e 512 -c 2 -a 0 -i 88 -k AGT
r -t 1.154129474 -s 7 -d 7 -p cbr -e 532 -c 2 -a 0 -i 44 -k AGT
+ -t 1.155428571 -s 3 -d -1 -p cbr -e 512 -c 2 -a 0 -i 89 -k AGT 
- -t 1.155428571 -s 3 -d -1 -p cbr -e 512 -c 2 -a 0 -i 89 -k AGT
h -t 1.155428571 -s 3 -d -1 -p cbr -e 512 -c 2 -a 0 -i 89 -k AGT
+ -t 1.158285714 -s 0 -d -1 -p cbr -e 512 -c 2 -a 0 -i 90 -k AGT 
- -t 1.158285714 -s 0 -d -1 -p cbr -e 512 -c 2 -a 0 -i 90 -k AGT
h -t 1.158285714 -s 0 -d -1 -p cbr -e 512 -c 2 -a 0 -i 90 -k AGT
+ -t 1.164571429 -s 3 -d -1 -p cbr -e 512 -c 2 -a 0 -i 91 -k AGT 
- -t 1.164571429 -s 3 -d -1 -p cbr -e 512 -c 2 -a 0 -i 91 -k AGT
h -t 1.164571429 -s 3 -d -1 -p cbr -e 512 -c 2 -a 0 -i 91 -k AGT
+ -t 1.167428571 -s 0 -d -1 -p cbr -e 512 -c 2 -a 0 -i 92 -k AGT 
- -t 1.167428571 -s 0 -d -1 -p cbr -e 512 -c 2 -a 0 -i 92 -k AGT
h -t 1.167428571 -s 0 -d -1 -p cbr -e 512 -c 2 -a 0 -i 92 -k AGT
+ -t 1.173714286 -s 3 -d -1 -p cbr -e 512 -c 2 -a 0 -i 93 -k AGT 
- -t 1.173714286 -s 3 -d -1 -p cbr -e 512 -c 2 -a 0 -i 93 -k AGT
h -t 1.173714286 -s 3 -d -1 -p cbr -e 512 -c 2 -a 0 -i 93 -k AGT
+ -t 1.176571429 -s 0 -d -1 -p cbr -e 512 -c 2 -a 0 -i 94 -k AGT 
- -t 1.176571429 -s 0 -d -1 -p cbr -e 512 -c 2 -a 0 -i 94 -k AGT
h -t 1.176571429 -s 0 -d -1 -p cbr -e 512 -c 2 -a 0 -i 94 -k AGT
r -t 1.178232740 -s 8 -d 8 -p cbr -e 532 -c 2 -a 0 -i 61 -k AGT
+ -t 1.182857143 -s 3 -d -1 -p cbr -e 512 -c 2 -a 0 -i 95 -k AGT 
- -t 1.182857143 -s 3 -d -1 -p cbr -e 512 -c 2 -a 0 -i 95 -k AGT
h -t 1.182857143 -s 3 -d -1 -p cbr -e 512 -c 2 -a 0 -i 95 -k AGT
r -t 1.184215407 -s 8 -d 8 -p cbr -e 532 -c 2 -a 0 -i 71 -k AGT
+ -t 1.185714286 -s 0 -d -1 -p cbr -e 512 -c 2 -a 0 -i 96 -k AGT 
- -t 1.185714286 -s 0 -d -1 -p cbr -e 512 -c 2 -a 0 -i 96 -k AGT
h -t 1.185714286 -s 0 -d -1 -p cbr -e 512 -c 2 -a 0 -i 96 -k AGT
r -t 1.190358310 -s 7 -d 7 -p cbr -e 532 -c 2 -a 0 -i 45 -k AGT
+ -t 1.192000000 -s 3 -d -1 -p cbr -e 512 -c 2 -a 0 -i 97 -k AGT 
- -t 1.192000000 -s 3 -d -1 -p cbr -e 512 -c 2 -a 0 -i 97 -k AGT
h -t 1.192000000 -s 3 -d -1 -p cbr -e 512 -c 2 -a 0 -i 97 -k AGT
+ -t 1.194857143 -s 0 -d -1 -p cbr -e 512 -c 2 -a 0 -i 98 -k AGT 
- -t 1.194857143 -s 0 -d -1 -p cbr -e 512 -c 2 -a 0 -i 98 -k AGT
h -t 1.194857143 -s 0 -d -1 -p cbr -e 512 -c 2 -a 0 -i 98 -k AGT
+ -t 1.201142857 -s 3 -d -1 -p cbr -e 512 -c 2 -a 0 -i 99 -k AGT 
- -t 1.201142857 -s 3 -d -1 -p cbr -e 512 -c 2 -a 0 -i 99 -k AGT
h -t 1.201142857 -s 3 -d -1 -p cbr -e 512 -c 2 -a 0 -i 99 -k AGT
r -t 1.202546926 -s 8 -d 8 -p cbr -e 532 -c 2 -a 0 -i 63 -k AGT
+ -t 1.204000000 -s 0 -d -1 -p cbr -e 512 -c 2 -a 0 -i 100 -k AGT 
- -t 1.204000000 -s 0 -d -1 -p cbr -e 512 -c 2 -a 0 -i 100 -k AGT
h -t 1.204000000 -s 0 -d -1 -p cbr -e 512 -c 2 -a 0 -i 100 -k AGT
+ -t 1.210285714 -s 3 -d -1 -p cbr -e 512 -c 2 -a 0 -i 101 -k AGT 
- -t 1.210285714 -s 3 -d -1 -p cbr -e 512 -c 2 -a 0 -i 101 -k AGT
h -t 1.210285714 -s 3 -d -1 -p cbr -e 512 -c 2 -a 0 -i 101 -k AGT
+ -t 1.213142857 -s 0 -d -1 -p cbr -e 512 -c 2 -a 0 -i 102 -k AGT 
- -t 1.213142857 -s 0 -d -1 -p cbr -e 512 -c 2 -a 0 -i 102 -k AGT
h -t 1.213142857 -s 0 -d -1 -p cbr -e 512 -c 2 -a 0 -i 102 -k AGT
r -t 1.214536600 -s 7 -d 7 -p cbr -e 532 -c 2 -a 0 -i 46 -k AGT
+ -t 1.219428571 -s 3 -d -1 -p cbr -e 512 -c 2 -a 0 -i 103 -k AGT 
- -t 1.219428571 -s 3 -d -1 -p cbr -e 512 -c 2 -a 0 -i 103 -k AGT
h -t 1.219428571 -s 3 -d -1 -p cbr -e 512 -c 2 -a 0 -i 103 -k AGT
+ -t 1.222285714 -s 0 -d -1 -p cbr -e 512 -c 2 -a 0 -i 104 -k AGT 
- -t 1.222285714 -s 0 -d -1 -p cbr -e 512 -c 2 -a 0 -i 104 -k AGT
h -t 1.222285714 -s 0 -d -1 -p cbr -e 512 -c 2 -a 0 -i 104 -k AGT
r -t 1.226806126 -s 7 -d 7 -p cbr -e 532 -c 2 -a 0 -i 47 -k AGT
+ -t 1.228571429 -s 3 -d -1 -p cbr -e 512 -c 2 -a 0 -i 105 -k AGT 
- -t 1.228571429 -s 3 -d -1 -p cbr -e 512 -c 2 -a 0 -i 105 -k AGT
h -t 1.228571429 -s 3 -d -1 -p cbr -e 512 -c 2 -a 0 -i 105 -k AGT
+ -t 1.231428571 -s 0 -d -1 -p cbr -e 512 -c 2 -a 0 -i 106 -k AGT 
- -t 1.231428571 -s 0 -d -1 -p cbr -e 512 -c 2 -a 0 -i 106 -k AGT
h -t 1.231428571 -s 0 -d -1 -p cbr -e 512 -c 2 -a 0 -i 106 -k AGT
+ -t 1.237714286 -s 3 -d -1 -p cbr -e 512 -c 2 -a 0 -i 107 -k AGT 
- -t 1.237714286 -s 3 -d -1 -p cbr -e 512 -c 2 -a 0 -i 107 -k AGT
h -t 1.237714286 -s 3 -d -1 -p cbr -e 512 -c 2 -a 0 -i 107 -k AGT
+ -t 1.240571429 -s 0 -d -1 -p cbr -e 512 -c 2 -a 0 -i 108 -k AGT 
- -t 1.240571429 -s 0 -d -1 -p cbr -e 512 -c 2 -a 0 -i 108 -k AGT
h -t 1.240571429 -s 0 -d -1 -p cbr -e 512 -c 2 -a 0 -i 108 -k AGT
r -t 1.244867507 -s 8 -d 8 -p cbr -e 532 -c 2 -a 0 -i 73 -k AGT
+ -t 1.246857143 -s 3 -d -1 -p cbr -e 512 -c 2 -a 0 -i 109 -k AGT 
- -t 1.246857143 -s 3 -d -1 -p cbr -e 512 -c 2 -a 0 -i 109 -k AGT
h -t 1.246857143 -s 3 -d -1 -p cbr -e 512 -c 2 -a 0 -i 109 -k AGT
+ -t 1.249714286 -s 0 -d -1 -p cbr -e 512 -c 2 -a 0 -i 110 -k AGT 
- -t 1.249714286 -s 0 -d -1 -p cbr -e 512 -c 2 -a 0 -i 110 -k AGT
h -t 1.249714286 -s 0 -d -1 -p cbr -e 512 -c 2 -a 0 -i 110 -k AGT
+ -t 1.256000000 -s 3 -d -1 -p cbr -e 512 -c 2 -a 0 -i 111 -k AGT 
- -t 1.256000000 -s 3 -d -1 -p cbr -e 512 -c 2 -a 0 -i 111 -k AGT
h -t 1.256000000 -s 3 -d -1 -p cbr -e 512 -c 2 -a 0 -i 111 -k AGT
r -t 1.256997181 -s 7 -d 7 -p cbr -e 532 -c 2 -a 0 -i 48 -k AGT
+ -t 1.258857143 -s 0 -d -1 -p cbr -e 512 -c 2 -a 0 -i 112 -k AGT 
- -t 1.258857143 -s 0 -d -1 -p cbr -e 512 -c 2 -a 0 -i 112 -k AGT
h -t 1.258857143 -s 0 -d -1 -p cbr -e 512 -c 2 -a 0 -i 112 -k AGT
r -t 1.263040162 -s 7 -d 7 -p cbr -e 532 -c 2 -a 0 -i 49 -k AGT
+ -t 1.265142857 -s 3 -d -1 -p cbr -e 512 -c 2 -a 0 -i 113 -k AGT 
- -t 1.265142857 -s 3 -d -1 -p cbr -e 512 -c 2 -a 0 -i 113 -k AGT
h -t 1.265142857 -s 3 -d -1 -p cbr -e 512 -c 2 -a 0 -i 113 -k AGT
+ -t 1.268000000 -s 0 -d -1 -p cbr -e 512 -c 2 -a 0 -i 114 -k AGT 
- -t 1.268000000 -s 0 -d -1 -p cbr -e 512 -c 2 -a 0 -i 114 -k AGT
h -t 1.268000000 -s 0 -d -1 -p cbr -e 512 -c 2 -a 0 -i 114 -k AGT
+ -t 1.274285714 -s 3 -d -1 -p cbr -e 512 -c 2 -a 0 -i 115 -k AGT 
- -t 1.274285714 -s 3 -d -1 -p cbr -e 512 -c 2 -a 0 -i 115 -k AGT
h -t 1.274285714 -s 3 -d -1 -p cbr -e 512 -c 2 -a 0 -i 115 -k AGT
r -t 1.275028778 -s 8 -d 8 -p cbr -e 532 -c 2 -a 0 -i 75 -k AGT
+ -t 1.277142857 -s 0 -d -1 -p cbr -e 512 -c 2 -a 0 -i 116 -k AGT 
- -t 1.277142857 -s 0 -d -1 -p cbr -e 512 -c 2 -a 0 -i 116 -k AGT
h -t 1.277142857 -s 0 -d -1 -p cbr -e 512 -c 2 -a 0 -i 116 -k AGT
+ -t 1.283428571 -s 3 -d -1 -p cbr -e 512 -c 2 -a 0 -i 117 -k AGT 
- -t 1.283428571 -s 3 -d -1 -p cbr -e 512 -c 2 -a 0 -i 117 -k AGT
h -t 1.283428571 -s 3 -d -1 -p cbr -e 512 -c 2 -a 0 -i 117 -k AGT
+ -t 1.286285714 -s 0 -d -1 -p cbr -e 512 -c 2 -a 0 -i 118 -k AGT 
- -t 1.286285714 -s 0 -d -1 -p cbr -e 512 -c 2 -a 0 -i 118 -k AGT
h -t 1.286285714 -s 0 -d -1 -p cbr -e 512 -c 2 -a 0 -i 118 -k AGT
r -t 1.287137247 -s 8 -d 8 -p cbr -e 532 -c 2 -a 0 -i 77 -k AGT
+ -t 1.292571429 -s 3 -d -1 -p cbr -e 512 -c 2 -a 0 -i 119 -k AGT 
- -t 1.292571429 -s 3 -d -1 -p cbr -e 512 -c 2 -a 0 -i 119 -k AGT
h -t 1.292571429 -s 3 -d -1 -p cbr -e 512 -c 2 -a 0 -i 119 -k AGT
+ -t 1.295428571 -s 0 -d -1 -p cbr -e 512 -c 2 -a 0 -i 120 -k AGT 
- -t 1.295428571 -s 0 -d -1 -p cbr -e 512 -c 2 -a 0 -i 120 -k AGT
h -t 1.295428571 -s 0 -d -1 -p cbr -e 512 -c 2 -a 0 -i 120 -k AGT
+ -t 1.301714286 -s 3 -d -1 -p cbr -e 512 -c 2 -a 0 -i 121 -k AGT 
- -t 1.301714286 -s 3 -d -1 -p cbr -e 512 -c 2 -a 0 -i 121 -k AGT
h -t 1.301714286 -s 3 -d -1 -p cbr -e 512 -c 2 -a 0 -i 121 -k AGT
+ -t 1.304571429 -s 0 -d -1 -p cbr -e 512 -c 2 -a 0 -i 122 -k AGT 
- -t 1.304571429 -s 0 -d -1 -p cbr -e 512 -c 2 -a 0 -i 122 -k AGT
h -t 1.304571429 -s 0 -d -1 -p cbr -e 512 -c 2 -a 0 -i 122 -k AGT
+ -t 1.310857143 -s 3 -d -1 -p cbr -e 512 -c 2 -a 0 -i 123 -k AGT 
- -t 1.310857143 -s 3 -d -1 -p cbr -e 512 -c 2 -a 0 -i 123 -k AGT
h -t 1.310857143 -s 3 -d -1 -p cbr -e 512 -c 2 -a 0 -i 123 -k AGT
r -t 1.310941571 -s 7 -d 7 -p cbr -e 532 -c 2 -a 0 -i 50 -k AGT
+ -t 1.313714286 -s 0 -d -1 -p cbr -e 512 -c 2 -a 0 -i 124 -k AGT 
- -t 1.313714286 -s 0 -d -1 -p cbr -e 512 -c 2 -a 0 -i 124 -k AGT
h -t 1.313714286 -s 0 -d -1 -p cbr -e 512 -c 2 -a 0 -i 124 -k AGT
r -t 1.316724552 -s 7 -d 7 -p cbr -e 532 -c 2 -a 0 -i 51 -k AGT
+ -t 1.320000000 -s 3 -d -1 -p cbr -e 512 -c 2 -a 0 -i 125 -k AGT 
- -t 1.320000000 -s 3 -d -1 -p cbr -e 512 -c 2 -a 0 -i 125 -k AGT
h -t 1.320000000 -s 3 -d -1 -p cbr -e 512 -c 2 -a 0 -i 125 -k AGT
r -t 1.322827298 -s 8 -d 8 -p cbr -e 532 -c 2 -a 0 -i 79 -k AGT
+ -t 1.322857143 -s 0 -d -1 -p cbr -e 512 -c 2 -a 0 -i 126 -k AGT 
- -t 1.322857143 -s 0 -d -1 -p cbr -e 512 -c 2 -a 0 -i 126 -k AGT
h -t 1.322857143 -s 0 -d -1 -p cbr -e 512 -c 2 -a 0 -i 126 -k AGT
+ -t 1.329142857 -s 3 -d -1 -p cbr -e 512 -c 2 -a 0 -i 127 -k AGT 
- -t 1.329142857 -s 3 -d -1 -p cbr -e 512 -c 2 -a 0 -i 127 -k AGT
h -t 1.329142857 -s 3 -d -1 -p cbr -e 512 -c 2 -a 0 -i 127 -k AGT
+ -t 1.332000000 -s 0 -d -1 -p cbr -e 512 -c 2 -a 0 -i 128 -k AGT 