s 0.500000000 _0_ AGT  --- 0 cbr 512 [0 0 0 0] ------- [0:0 7:0 32 0] [0] 0 0
s 0.509142857 _0_ AGT  --- 1 cbr 512 [0 0 0 0] ------- [0:0 7:0 32 0] [1] 0 0
s 0.518285714 _0_ AGT  --- 2 cbr 512 [0 0 0 0] ------- [0:0 7:0 32 0] [2] 0 0
s 0.527428571 _0_ AGT  --- 3 cbr 512 [0 0 0 0] ------- [0:0 7:0 32 0] [3] 0 0
r 0.531271431 _7_ AGT  --- 0 cbr 532 [13a 7 4 800] ------- [0:0 7:0 29 7] [0] 2 0
s 0.536571429 _0_ AGT  --- 4 cbr 512 [0 0 0 0] ------- [0:0 7:0 32 0] [4] 0 0
s 0.545714286 _0_ AGT  --- 5 cbr 512 [0 0 0 0] ------- [0:0 7:0 32 0] [5] 0 0
r 0.549803939 _7_ AGT  --- 3 cbr 532 [13a 7 4 800] ------- [0:0 7:0 29 7] [3] 2 0
s 0.554857143 _0_ AGT  --- 6 cbr 512 [0 0 0 0] ------- [0:0 7:0 32 0] [6] 0 0
r 0.555766920 _7_ AGT  --- 1 cbr 532 [13a 7 4 800] ------- [0:0 7:0 29 7] [1] 2 0
s 0.564000000 _0_ AGT  --- 7 cbr 512 [0 0 0 0] ------- [0:0 7:0 32 0] [7] 0 0
s 0.573142857 _0_ AGT  --- 8 cbr 512 [0 0 0 0] ------- [0:0 7:0 32 0] [8] 0 0
r 0.579842409 _7_ AGT  --- 4 cbr 532 [13a 7 4 800] ------- [0:0 7:0 29 7] [4] 2 0
s 0.582285714 _0_ AGT  --- 9 cbr 512 [0 0 0 0] ------- [0:0 7:0 32 0] [9] 0 0
r 0.585705390 _7_ AGT  --- 2 cbr 532 [13a 7 4 800] ------- [0:0 7:0 29 7] [2] 2 0
s 0.591428571 _0_ AGT  --- 10 cbr 512 [0 0 0 0] ------- [0:0 7:0 32 0] [10] 0 0
r 0.591848372 _7_ AGT  --- 5 cbr 532 [13a 7 4 800] ------- [0:0 7:0 29 7] [5] 2 0
s 0.600571429 _0_ AGT  --- 11 cbr 512 [0 0 0 0] ------- [0:0 7:0 32 0] [11] 0 0
s 0.609714286 _0_ AGT  --- 12 cbr 512 [0 0 0 0] ------- [0:0 7:0 32 0] [12] 0 0
r 0.610200880 _7_ AGT  --- 6 cbr 532 [13a 7 4 800] ------- [0:0 7:0 29 7] [6] 2 0
r 0.616203861 _7_ AGT  --- 7 cbr 532 [13a 7 4 800] ------- [0:0 7:0 29 7] [7] 2 0
s 0.618857143 _0_ AGT  --- 13 cbr 512 [0 0 0 0] ------- [0:0 7:0 32 0] [13] 0 0
s 0.628000000 _0_ AGT  --- 14 cbr 512 [0 0 0 0] ------- [0:0 7:0 32 0] [14] 0 0
r 0.628273387 _7_ AGT  --- 8 cbr 532 [13a 7 4 800] ------- [0:0 7:0 29 7] [8] 2 0
s 0.637142857 _0_ AGT  --- 15 cbr 512 [0 0 0 0] ------- [0:0 7:0 32 0] [15] 0 0
s 0.646285714 _0_ AGT  --- 16 cbr 512 [0 0 0 0] ------- [0:0 7:0 32 0] [16] 0 0
r 0.652408876 _7_ AGT  --- 9 cbr 532 [13a 7 4 800] ------- [0:0 7:0 29 7] [9] 2 0
s 0.655428571 _0_ AGT  --- 17 cbr 512 [0 0 0 0] ------- [0:0 7:0 32 0] [17] 0 0
r 0.664538402 _7_ AGT  --- 10 cbr 532 [13a 7 4 800] ------- [0:0 7:0 29 7] [10] 2 0
s 0.664571429 _0_ AGT  --- 18 cbr 512 [0 0 0 0] ------- [0:0 7:0 32 0] [18] 0 0
r 0.670781384 _7_ AGT  --- 11 cbr 532 [13a 7 4 800] ------- [0:0 7:0 29 7] [11] 2 0
s 0.673714286 _0_ AGT  --- 19 cbr 512 [0 0 0 0] ------- [0:0 7:0 32 0] [19] 0 0
r 0.676844365 _7_ AGT  --- 12 cbr 532 [13a 7 4 800] ------- [0:0 7:0 29 7] [12] 2 0
s 0.682857143 _0_ AGT  --- 20 cbr 512 [0 0 0 0] ------- [0:0 7:0 32 0] [20] 0 0
r 0.689033892 _7_ AGT  --- 13 cbr 532 [13a 7 4 800] ------- [0:0 7:0 29 7] [13] 2 0
s 0.692000000 _0_ AGT  --- 21 cbr 512 [0 0 0 0] ------- [0:0 7:0 32 0] [21] 0 0
s 0.701142857 _0_ AGT  --- 22 cbr 512 [0 0 0 0] ------- [0:0 7:0 32 0] [22] 0 0
r 0.701603418 _7_ AGT  --- 14 cbr 532 [13a 7 4 800] ------- [0:0 7:0 29 7] [14] 2 0
s 0.710285714 _0_ AGT  --- 23 cbr 512 [0 0 0 0] ------- [0:0 7:0 32 0] [23] 0 0
s 0.719428571 _0_ AGT  --- 24 cbr 512 [0 0 0 0] ------- [0:0 7:0 32 0] [24] 0 0
r 0.719435925 _7_ AGT  --- 15 cbr 532 [13a 7 4 800] ------- [0:0 7:0 29 7] [15] 2 0
r 0.725618907 _7_ AGT  --- 16 cbr 532 [13a 7 4 800] ------- [0:0 7:0 29 7] [16] 2 0
s 0.728571429 _0_ AGT  --- 25 cbr 512 [0 0 0 0] ------- [0:0 7:0 32 0] [25] 0 0
s 0.737714286 _0_ AGT  --- 26 cbr 512 [0 0 0 0] ------- [0:0 7:0 32 0] [26] 0 0
s 0.746857143 _0_ AGT  --- 27 cbr 512 [0 0 0 0] ------- [0:0 7:0 32 0] [27] 0 0
r 0.749834396 _7_ AGT  --- 17 cbr 532 [13a 7 4 800] ------- [0:0 7:0 29 7] [17] 2 0
s 0.756000000 _0_ AGT  --- 28 cbr 512 [0 0 0 0] ------- [0:0 7:0 32 0] [28] 0 0
r 0.756177377 _7_ AGT  --- 18 cbr 532 [13a 7 4 800] ------- [0:0 7:0 29 7] [18] 2 0
r 0.762500359 _7_ AGT  --- 19 cbr 532 [13a 7 4 800] ------- [0:0 7:0 29 7] [19] 2 0
s 0.765142857 _0_ AGT  --- 29 cbr 512 [0 0 0 0] ------- [0:0 7:0 32 0] [29] 0 0
s 0.774285714 _0_ AGT  --- 30 cbr 512 [0 0 0 0] ------- [0:0 7:0 32 0] [30] 0 0
r 0.774469885 _7_ AGT  --- 20 cbr 532 [13a 7 4 800] ------- [0:0 7:0 29 7] [20] 2 0
s 0.783428571 _0_ AGT  --- 31 cbr 512 [0 0 0 0] ------- [0:0 7:0 32 0] [31] 0 0
r 0.786939411 _7_ AGT  --- 21 cbr 532 [13a 7 4 800] ------- [0:0 7:0 29 7] [21] 2 0
s 0.792571429 _0_ AGT  --- 32 cbr 512 [0 0 0 0] ------- [0:0 7:0 32 0] [32] 0 0
r 0.799248937 _7_ AGT  --- 22 cbr 532 [13a 7 4 800] ------- [0:0 7:0 29 7] [22] 2 0
s 0.801714286 _0_ AGT  --- 33 cbr 512 [0 0 0 0] ------- [0:0 7:0 32 0] [33] 0 0
s 0.810857143 _0_ AGT  --- 34 cbr 512 [0 0 0 0] ------- [0:0 7:0 32 0] [34] 0 0
s 0.820000000 _0_ AGT  --- 35 cbr 512 [0 0 0 0] ------- [0:0 7:0 32 0] [35] 0 0
r 0.829087408 _7_ AGT  --- 23 cbr 532 [13a 7 4 800] ------- [0:0 7:0 29 7] [23] 2 0
s 0.829142857 _0_ AGT  --- 36 cbr 512 [0 0 0 0] ------- [0:0 7:0 32 0] [36] 0 0
r 0.835190389 _7_ AGT  --- 24 cbr 532 [13a 7 4 800] ------- [0:0 7:0 29 7] [24] 2 0
s 0.838285714 _0_ AGT  --- 37 cbr 512 [0 0 0 0] ------- [0:0 7:0 32 0] [37] 0 0
r 0.841213371 _7_ AGT  --- 25 cbr 532 [13a 7 4 800] ------- [0:0 7:0 29 7] [25] 2 0
s 0.847428571 _0_ AGT  --- 38 cbr 512 [0 0 0 0] ------- [0:0 7:0 32 0] [38] 0 0
r 0.847476352 _7_ AGT  --- 26 cbr 532 [13a 7 4 800] ------- [0:0 7:0 29 7] [26] 2 0
s 0.856571429 _0_ AGT  --- 39 cbr 512 [0 0 0 0] ------- [0:0 7:0 32 0] [39] 0 0
r 0.859865878 _7_ AGT  --- 27 cbr 532 [13a 7 4 800] ------- [0:0 7:0 29 7] [27] 2 0
s 0.865714286 _0_ AGT  --- 40 cbr 512 [0 0 0 0] ------- [0:0 7:0 32 0] [40] 0 0
s 0.874857143 _0_ AGT  --- 41 cbr 512 [0 0 0 0] ------- [0:0 7:0 32 0] [41] 0 0
r 0.878198386 _7_ AGT  --- 28 cbr 532 [13a 7 4 800] ------- [0:0 7:0 29 7] [28] 2 0
r 0.883961368 _7_ AGT  --- 29 cbr 532 [13a 7 4 800] ------- [0:0 7:0 29 7] [29] 2 0
s 0.884000000 _0_ AGT  --- 42 cbr 512 [0 0 0 0] ------- [0:0 7:0 32 0] [42] 0 0
s 0.893142857 _0_ AGT  --- 43 cbr 512 [0 0 0 0] ------- [0:0 7:0 32 0] [43] 0 0
r 0.896130894 _7_ AGT  --- 30 cbr 532 [13a 7 4 800] ------- [0:0 7:0 29 7] [30] 2 0
s 0.902285714 _0_ AGT  --- 44 cbr 512 [0 0 0 0] ------- [0:0 7:0 32 0] [44] 0 0
r 0.908560420 _7_ AGT  --- 31 cbr 532 [13a 7 4 800] ------- [0:0 7:0 29 7] [31] 2 0
s 0.911428571 _0_ AGT  --- 45 cbr 512 [0 0 0 0] ------- [0:0 7:0 32 0] [45] 0 0
s 0.920571429 _0_ AGT  --- 46 cbr 512 [0 0 0 0] ------- [0:0 7:0 32 0] [46] 0 0
r 0.920749946 _7_ AGT  --- 32 cbr 532 [13a 7 4 800] ------- [0:0 7:0 29 7] [32] 2 0
s 0.929714286 _0_ AGT  --- 47 cbr 512 [0 0 0 0] ------- [0:0 7:0 32 0] [47] 0 0
s 0.938857143 _0_ AGT  --- 48 cbr 512 [0 0 0 0] ------- [0:0 7:0 32 0] [48] 0 0
s 0.948000000 _0_ AGT  --- 49 cbr 512 [0 0 0 0] ------- [0:0 7:0 32 0] [49] 0 0
r 0.950428417 _7_ AGT  --- 33 cbr 532 [13a 7 4 800] ------- [0:0 7:0 29 7] [33] 2 0
r 0.956311398 _7_ AGT  --- 34 cbr 532 [13a 7 4 800] ------- [0:0 7:0 29 7] [34] 2 0
s 0.957142857 _0_ AGT  --- 50 cbr 512 [0 0 0 0] ------- [0:0 7:0 32 0] [50] 0 0
r 0.962614380 _7_ AGT  --- 35 cbr 532 [13a 7 4 800] ------- [0:0 7:0 29 7] [35] 2 0
s 0.966285714 _0_ AGT  --- 51 cbr 512 [0 0 0 0] ------- [0:0 7:0 32 0] [51] 0 0
r 0.968977361 _7_ AGT  --- 36 cbr 532 [13a 7 4 800] ------- [0:0 7:0 29 7] [36] 2 0
s 0.975428571 _0_ AGT  --- 52 cbr 512 [0 0 0 0] ------- [0:0 7:0 32 0] [52] 0 0
s 0.984571429 _0_ AGT  --- 53 cbr 512 [0 0 0 0] ------- [0:0 7:0 32 0] [53] 0 0
r 0.986729869 _7_ AGT  --- 37 cbr 532 [13a 7 4 800] ------- [0:0 7:0 29 7] [37] 2 0
r 0.992492850 _7_ AGT  --- 38 cbr 532 [13a 7 4 800] ------- [0:0 7:0 29 7] [38] 2 0
s 0.993714286 _0_ AGT  --- 54 cbr 512 [0 0 0 0] ------- [0:0 7:0 32 0] [54] 0 0
s 1.000000000 _3_ AGT  --- 55 cbr 512 [0 0 0 0] ------- [3:0 8:0 32 0] [0] 0 0
s 1.002857143 _0_ AGT  --- 56 cbr 512 [0 0 0 0] ------- [0:0 7:0 32 0] [55] 0 0
s 1.009142857 _3_ AGT  --- 57 cbr 512 [0 0 0 0] ------- [3:0 8:0 32 0] [1] 0 0
r 1.011834084 _7_ AGT  --- 39 cbr 532 [13a 7 4 800] ------- [0:0 7:0 29 7] [39] 2 0
s 1.012000000 _0_ AGT  --- 58 cbr 512 [0 0 0 0] ------- [0:0 7:0 32 0] [56] 0 0
s 1.018285714 _3_ AGT  --- 59 cbr 512 [0 0 0 0] ------- [3:0 8:0 32 0] [2] 0 0
r 1.019893732 _7_ AGT  --- 40 cbr 532 [13a 7 4 800] ------- [0:0 7:0 29 7] [40] 2 0
s 1.021142857 _0_ AGT  --- 60 cbr 512 [0 0 0 0] ------- [0:0 7:0 32 0] [57] 0 0
s 1.027428571 _3_ AGT  --- 61 cbr 512 [0 0 0 0] ------- [3:0 8:0 32 0] [3] 0 0
s 1.030285714 _0_ AGT  --- 62 cbr 512 [0 0 0 0] ------- [0:0 7:0 32 0] [58] 0 0
r 1.032517342 _7_ AGT  --- 41 cbr 532 [13a 7 4 800] ------- [0:0 7:0 29 7] [41] 2 0
s 1.036571429 _3_ AGT  --- 63 cbr 512 [0 0 0 0] ------- [3:0 8:0 32 0] [4] 0 0
s 1.039428571 _0_ AGT  --- 64 cbr 512 [0 0 0 0] ------- [0:0 7:0 32 0] [59] 0 0
s 1.045714286 _3_ AGT  --- 65 cbr 512 [0 0 0 0] ------- [3:0 8:0 32 0] [5] 0 0
s 1.048571429 _0_ AGT  --- 66 cbr 512 [0 0 0 0] ------- [0:0 7:0 32 0] [60] 0 0
s 1.054857143 _3_ AGT  --- 67 cbr 512 [0 0 0 0] ------- [3:0 8:0 32 0] [6] 0 0
s 1.057714286 _0_ AGT  --- 68 cbr 512 [0 0 0 0] ------- [0:0 7:0 32 0] [61] 0 0
s 1.064000000 _3_ AGT  --- 69 cbr 512 [0 0 0 0] ------- [3:0 8:0 32 0] [7] 0 0
s 1.066857143 _0_ AGT  --- 70 cbr 512 [0 0 0 0] ------- [0:0 7:0 32 0] [62] 0 0
r 1.069432296 _8_ AGT  --- 55 cbr 532 [13a 8 4 800] ------- [3:0 8:0 29 8] [0] 2 0
s 1.073142857 _3_ AGT  --- 71 cbr 512 [0 0 0 0] ------- [3:0 8:0 32 0] [8] 0 0
r 1.075595198 _7_ AGT  --- 42 cbr 532 [13a 7 4 800] ------- [0:0 7:0 29 7] [42] 2 0
s 1.076000000 _0_ AGT  --- 72 cbr 512 [0 0 0 0] ------- [0:0 7:0 32 0] [63] 0 0
r 1.081737944 _8_ AGT  --- 65 cbr 532 [13a 8 4 800] ------- [3:0 8:0 29 8] [5] 2 0
s 1.082285714 _3_ AGT  --- 73 cbr 512 [0 0 0 0] ------- [3:0 8:0 32 0] [9] 0 0
s 1.085142857 _0_ AGT  --- 74 cbr 512 [0 0 0 0] ------- [0:0 7:0 32 0] [64] 0 0
s 1.091428571 _3_ AGT  --- 75 cbr 512 [0 0 0 0] ------- [3:0 8:0 32 0] [10] 0 0
s 1.094285714 _0_ AGT  --- 76 cbr 512 [0 0 0 0] ------- [0:0 7:0 32 0] [65] 0 0
r 1.099608298 _8_ AGT  --- 57 cbr 532 [13a 8 4 800] ------- [3:0 8:0 29 8] [1] 2 0
s 1.100571429 _3_ AGT  --- 77 cbr 512 [0 0 0 0] ------- [3:0 8:0 32 0] [11] 0 0
s 1.103428571 _0_ AGT  --- 78 cbr 512 [0 0 0 0] ------- [0:0 7:0 32 0] [66] 0 0
r 1.105750964 _8_ AGT  --- 67 cbr 532 [13a 8 4 800] ------- [3:0 8:0 29 8] [6] 2 0
s 1.109714286 _3_ AGT  --- 79 cbr 512 [0 0 0 0] ------- [3:0 8:0 32 0] [12] 0 0
s 1.112571429 _0_ AGT  --- 80 cbr 512 [0 0 0 0] ------- [0:0 7:0 32 0] [67] 0 0
r 1.117980638 _7_ AGT  --- 43 cbr 532 [13a 7 4 800] ------- [0:0 7:0 29 7] [43] 2 0
s 1.118857143 _3_ AGT  --- 81 cbr 512 [0 0 0 0] ------- [3:0 8:0 32 0] [13] 0 0
s 1.121714286 _0_ AGT  --- 82 cbr 512 [0 0 0 0] ------- [0:0 7:0 32 0] [68] 0 0
s 1.128000000 _3_ AGT  --- 83 cbr 512 [0 0 0 0] ------- [3:0 8:0 32 0] [14] 0 0
s 1.130857143 _0_ AGT  --- 84 cbr 512 [0 0 0 0] ------- [0:0 7:0 32 0] [69] 0 0
s 1.137142857 _3_ AGT  --- 85 cbr 512 [0 0 0 0] ------- [3:0 8:0 32 0] [15] 0 0
s 1.140000000 _0_ AGT  --- 86 cbr 512 [0 0 0 0] ------- [0:0 7:0 32 0] [70] 0 0
r 1.141883905 _8_ AGT  --- 59 cbr 532 [13a 8 4 800] ------- [3:0 8:0 29 8] [2] 2 0
s 1.146285714 _3_ AGT  --- 87 cbr 512 [0 0 0 0] ------- [3:0 8:0 32 0] [16] 0 0
r 1.147826571 _8_ AGT  --- 69 cbr 532 [13a 8 4 800] ------- [3:0 8:0 29 8] [7] 2 0
s 1.149142857 _0_ AGT  --- 88 cbr 512 [0 0 0 0] ------- [0:0 7:0 32 0] [71] 0 0
r 1.154129474 _7_ AGT  --- 44 cbr 532 [13a 7 4 800] ------- [0:0 7:0 29 7] [44] 2 0
s 1.155428571 _3_ AGT  --- 89 cbr 512 [0 0 0 0] ------- [3:0 8:0 32 0] [17] 0 0
s 1.158285714 _0_ AGT  --- 90 cbr 512 [0 0 0 0] ------- [0:0 7:0 32 0] [72] 0 0
s 1.164571429 _3_ AGT  --- 91 cbr 512 [0 0 0 0] ------- [3:0 8:0 32 0] [18] 0 0
s 1.167428571 _0_ AGT  --- 92 cbr 512 [0 0 0 0] ------- [0:0 7:0 32 0] [73] 0 0
s 1.173714286 _3_ AGT  --- 93 cbr 512 [0 0 0 0] ------- [3:0 8:0 32 0] [19] 0 0
s 1.176571429 _0_ AGT  --- 94 cbr 512 [0 0 0 0] ------- [0:0 7:0 32 0] [74] 0 0
r 1.178232740 _8_ AGT  --- 61 cbr 532 [13a 8 4 800] ------- [3:0 8:0 29 8] [3] 2 0
s 1.182857143 _3_ AGT  --- 95 cbr 512 [0 0 0 0] ------- [3:0 8:0 32 0] [20] 0 0
r 1.184215407 _8_ AGT  --- 71 cbr 532 [13a 8 4 800] ------- [3:0 8:0 29 8] [8] 2 0
s 1.185714286 _0_ AGT  --- 96 cbr 512 [0 0 0 0] ------- [0:0 7:0 32 0] [75] 0 0
r 1.190358310 _7_ AGT  --- 45 cbr 532 [13a 7 4 800] ------- [0:0 7:0 29 7] [45] 2 0
s 1.192000000 _3_ AGT  --- 97 cbr 512 [0 0 0 0] ------- [3:0 8:0 32 0] [21] 0 0
s 1.194857143 _0_ AGT  --- 98 cbr 512 [0 0 0 0] ------- [0:0 7:0 32 0] [76] 0 0
s 1.201142857 _3_ AGT  --- 99 cbr 512 [0 0 0 0] ------- [3:0 8:0 32 0] [22] 0 0
r 1.202546926 _8_ AGT  --- 63 cbr 532 [13a 8 4 800] ------- [3:0 8:0 29 8] [4] 2 0
s 1.204000000 _0_ AGT  --- 100 cbr 512 [0 0 0 0] ------- [0:0 7:0 32 0] [77] 0 0
s 1.210285714 _3_ AGT  --- 101 cbr 512 [0 0 0 0] ------- [3:0 8:0 32 0] [23] 0 0
s 1.213142857 _0_ AGT  --- 102 cbr 512 [0 0 0 0] ------- [0:0 7:0 32 0] [78] 0 0
r 1.214536600 _7_ AGT  --- 46 cbr 532 [13a 7 4 800] ------- [0:0 7:0 29 7] [46] 2 0
s 1.219428571 _3_ AGT  --- 103 cbr 512 [0 0 0 0] ------- [3:0 8:0 32 0] [24] 0 0
s 1.222285714 _0_ AGT  --- 104 cbr 512 [0 0 0 0] ------- [0:0 7:0 32 0] [79] 0 0
r 1.226806126 _7_ AGT  --- 47 cbr 532 [13a 7 4 800] ------- [0:0 7:0 29 7] [47] 2 0
s 1.228571429 _3_ AGT  --- 105 cbr 512 [0 0 0 0] ------- [3:0 8:0 32 0] [25] 0 0
s 1.231428571 _0_ AGT  --- 106 cbr 512 [0 0 0 0] ------- [0:0 7:0 32 0] [80] 0 0
s 1.237714286 _3_ AGT  --- 107 cbr 512 [0 0 0 0] ------- [3:0 8:0 32 0] [26] 0 0
s 1.240571429 _0_ AGT  --- 108 cbr 512 [0 0 0 0] ------- [0:0 7:0 32 0] [81] 0 0
r 1.244867507 _8_ AGT  --- 73 cbr 532 [13a 8 4 800] ------- [3:0 8:0 29 8] [9] 2 0
s 1.246857143 _3_ AGT  --- 109 cbr 512 [0 0 0 0] ------- [3:0 8:0 32 0] [27] 0 0
s 1.249714286 _0_ AGT  --- 110 cbr 512 [0 0 0 0] ------- [0:0 7:0 32 0] [82] 0 0
s 1.256000000 _3_ AGT  --- 111 cbr 512 [0 0 0 0] ------- [3:0 8:0 32 0] [28] 0 0
r 1.256997181 _7_ AGT  --- 48 cbr 532 [13a 7 4 800] ------- [0:0 7:0 29 7] [48] 2 0
s 1.258857143 _0_ AGT  --- 112 cbr 512 [0 0 0 0] ------- [0:0 7:0 32 0] [83] 0 0
r 1.263040162 _7_ AGT  --- 49 cbr 532 [13a 7 4 800] ------- [0:0 7:0 29 7] [49] 2 0
s 1.265142857 _3_ AGT  --- 113 cbr 512 [0 0 0 0] ------- [3:0 8:0 32 0] [29] 0 0
s 1.268000000 _0_ AGT  --- 114 cbr 512 [0 0 0 0] ------- [0:0 7:0 32 0] [84] 0 0
s 1.274285714 _3_ AGT  --- 115 cbr 512 [0 0 0 0] ------- [3:0 8:0 32 0] [30] 0 0
r 1.275028778 _8_ AGT  --- 75 cbr 532 [13a 8 4 800] ------- [3:0 8:0 29 8] [10] 2 0
s 1.277142857 _0_ AGT  --- 116 cbr 512 [0 0 0 0] ------- [0:0 7:0 32 0] [85] 0 0
s 1.283428571 _3_ AGT  --- 117 cbr 512 [0 0 0 0] ------- [3:0 8:0 32 0] [31] 0 0
s 1.286285714 _0_ AGT  --- 118 cbr 512 [0 0 0 0] ------- [0:0 7:0 32 0] [86] 0 0
r 1.287137247 _8_ AGT  --- 77 cbr 532 [13a 8 4 800] ------- [3:0 8:0 29 8] [11] 2 0
s 1.292571429 _3_ AGT  --- 119 cbr 512 [0 0 0 0] ------- [3:0 8:0 32 0] [32] 0 0
s 1.295428571 _0_ AGT  --- 120 cbr 512 [0 0 0 0] ------- [0:0 7:0 32 0] [87] 0 0
s 1.301714286 _3_ AGT  --- 121 cbr 512 [0 0 0 0] ------- [3:0 8:0 32 0] [33] 0 0
s 1.304571429 _0_ AGT  --- 122 cbr 512 [0 0 0 0] ------- [0:0 7:0 32 0] [88] 0 0
s 1.310857143 _3_ AGT  --- 123 cbr 512 [0 0 0 0] ------- [3:0 8:0 32 0] [34] 0 0
r 1.310941571 _7_ AGT  --- 50 cbr 532 [13a 7 4 800] ------- [0:0 7:0 29 7] [50] 2 0
s 1.313714286 _0_ AGT  --- 124 cbr 512 [0 0 0 0] ------- [0:0 7:0 32 0] [89] 0 0
r 1.316724552 _7_ AGT  --- 51 cbr 532 [13a 7 4 800] ------- [0:0 7:0 29 7] [51] 2 0
s 1.320000000 _3_ AGT  --- 125 cbr 512 [0 0 0 0] ------- [3:0 8:0 32 0] [35] 0 0
r 1.322827298 _8_ AGT  --- 79 cbr 532 [13a 8 4 800] ------- [3:0 8:0 29 8] [12] 2 0
s 1.322857143 _0_ AGT  --- 126 cbr 512 [0 0 0 0] ------- [0:0 7:0 32 0] [90] 0 0
s 1.329142857 _3_ AGT  --- 127 cbr 512 [0 0 0 0] ------- [3:0 8:0 32 0] [36] 0 0
s 1.332000000 _0_ AGT  --- 128 cbr 512 [0 0 0 0] ------- [0:0 7:0 32 0] [91] 0 0
s 1.338285714 _3_ AGT  --- 129 cbr 512 [0 0 0 0] ------- [3:0 8:0 32 0] [37] 0 0
r 1.340788641 _7_ AGT  --- 52 cbr 532 [13a 7 4 800] ------- [0:0 7:0 29 7] [52] 2 0
s 1.341142857 _0_ AGT  --- 130 cbr 512 [0 0 0 0] ------- [0:0 7:0 32 0] [92] 0 0
r 1.346771386 _8_ AGT  --- 81 cbr 532 [13a 8 4 800] ------- [3:0 8:0 29 8] [13] 2 0
s 1.347428571 _3_ AGT  --- 131 cbr 512 [0 0 0 0] ------- [3:0 8:0 32 0] [38] 0 0
s 1.350285714 _0_ AGT  --- 132 cbr 512 [0 0 0 0] ------- [0:0 7:0 32 0] [93] 0 0
s 1.356571429 _3_ AGT  --- 133 cbr 512 [0 0 0 0] ------- [3:0 8:0 32 0] [39] 0 0
s 1.359428571 _0_ AGT  --- 134 cbr 512 [0 0 0 0] ------- [0:0 7:0 32 0] [94] 0 0
s 1.365714286 _3_ AGT  --- 135 cbr 512 [0 0 0 0] ------- [3:0 8:0 32 0] [40] 0 0
s 1.368571429 _0_ AGT  --- 136 cbr 512 [0 0 0 0] ------- [0:0 7:0 32 0] [95] 0 0
r 1.370547023 _7_ AGT  --- 53 cbr 532 [13a 7 4 800] ------- [0:0 7:0 29 7] [53] 2 0
s 1.374857143 _3_ AGT  --- 137 cbr 512 [0 0 0 0] ------- [3:0 8:0 32 0] [41] 0 0
s 1.377714286 _0_ AGT  --- 138 cbr 512 [0 0 0 0] ------- [0:0 7:0 32 0] [96] 0 0
r 1.382635875 _7_ AGT  --- 54 cbr 532 [13a 7 4 800] ------- [0:0 7:0 29 7] [54] 2 0
s 1.384000000 _3_ AGT  --- 139 cbr 512 [0 0 0 0] ------- [3:0 8:0 32 0] [42] 0 0
s 1.386857143 _0_ AGT  --- 140 cbr 512 [0 0 0 0] ------- [0:0 7:0 32 0] [97] 0 0
s 1.393142857 _3_ AGT  --- 141 cbr 512 [0 0 0 0] ------- [3:0 8:0 32 0] [43] 0 0
r 1.394725401 _7_ AGT  --- 56 cbr 532 [13a 7 4 800] ------- [0:0 7:0 29 7] [55] 2 0
s 1.396000000 _0_ AGT  --- 142 cbr 512 [0 0 0 0] ------- [0:0 7:0 32 0] [98] 0 0
r 1.400548146 _8_ AGT  --- 83 cbr 532 [13a 8 4 800] ------- [3:0 8:0 29 8] [14] 2 0
s 1.402285714 _3_ AGT  --- 143 cbr 512 [0 0 0 0] ------- [3:0 8:0 32 0] [44] 0 0
s 1.405142857 _0_ AGT  --- 144 cbr 512 [0 0 0 0] ------- [0:0 7:0 32 0] [99] 0 0
s 1.411428571 _3_ AGT  --- 145 cbr 512 [0 0 0 0] ------- [3:0 8:0 32 0] [45] 0 0
r 1.412516851 _7_ AGT  --- 58 cbr 532 [13a 7 4 800] ------- [0:0 7:0 29 7] [56] 2 0
s 1.414285714 _0_ AGT  --- 146 cbr 512 [0 0 0 0] ------- [0:0 7:0 32 0] [100] 0 0
r 1.418579596 _8_ AGT  --- 85 cbr 532 [13a 8 4 800] ------- [3:0 8:0 29 8] [15] 2 0
s 1.420571429 _3_ AGT  --- 147 cbr 512 [0 0 0 0] ------- [3:0 8:0 32 0] [46] 0 0
s 1.423428571 _0_ AGT  --- 148 cbr 512 [0 0 0 0] ------- [0:0 7:0 32 0] [101] 0 0
s 1.429714286 _3_ AGT  --- 149 cbr 512 [0 0 0 0] ------- [3:0 8:0 32 0] [47] 0 0
s 1.432571429 _0_ AGT  --- 150 cbr 512 [0 0 0 0] ------- [0:0 7:0 32 0] [102] 0 0
r 1.436820829 _8_ AGT  --- 87 cbr 532 [13a 8 4 800] ------- [3:0 8:0 29 8] [16] 2 0
s 1.438857143 _3_ AGT  --- 151 cbr 512 [0 0 0 0] ------- [3:0 8:0 32 0] [48] 0 0
s 1.441714286 _0_ AGT  --- 152 cbr 512 [0 0 0 0] ------- [0:0 7:0 32 0] [103] 0 0
s 1.448000000 _3_ AGT  --- 153 cbr 512 [0 0 0 0] ------- [3:0 8:0 32 0] [49] 0 0
r 1.448890503 _7_ AGT  --- 60 cbr 532 [13a 7 4 800] ------- [0:0 7:0 29 7] [57] 2 0
s 1.450857143 _0_ AGT  --- 154 cbr 512 [0 0 0 0] ------- [0:0 7:0 32 0] [104] 0 0
r 1.455173485 _7_ AGT  --- 62 cbr 532 [13a 7 4 800] ------- [0:0 7:0 29 7] [58] 2 0
s 1.457142857 _3_ AGT  --- 155 cbr 512 [0 0 0 0] ------- [3:0 8:0 32 0] [50] 0 0
s 1.460000000 _0_ AGT  --- 156 cbr 512 [0 0 0 0] ------- [0:0 7:0 32 0] [105] 0 0
s 1.466285714 _3_ AGT  --- 157 cbr 512 [0 0 0 0] ------- [3:0 8:0 32 0] [51] 0 0
s 1.469142857 _0_ AGT  --- 158 cbr 512 [0 0 0 0] ------- [0:0 7:0 32 0] [106] 0 0
r 1.473034865 _8_ AGT  --- 89 cbr 532 [13a 8 4 800] ------- [3:0 8:0 29 8] [17] 2 0
s 1.475428571 _3_ AGT  --- 159 cbr 512 [0 0 0 0] ------- [3:0 8:0 32 0] [52] 0 0
s 1.478285714 _0_ AGT  --- 160 cbr 512 [0 0 0 0] ------- [0:0 7:0 32 0] [107] 0 0
r 1.479277768 _7_ AGT  --- 64 cbr 532 [13a 7 4 800] ------- [0:0 7:0 29 7] [59] 2 0
s 1.484571429 _3_ AGT  --- 161 cbr 512 [0 0 0 0] ------- [3:0 8:0 32 0] [53] 0 0
s 1.487428571 _0_ AGT  --- 162 cbr 512 [0 0 0 0] ------- [0:0 7:0 32 0] [108] 0 0
s 1.493714286 _3_ AGT  --- 163 cbr 512 [0 0 0 0] ------- [3:0 8:0 32 0] [54] 0 0
s 1.496571429 _0_ AGT  --- 164 cbr 512 [0 0 0 0] ------- [0:0 7:0 32 0] [109] 0 0
r 1.497390276 _7_ AGT  --- 66 cbr 532 [13a 7 4 800] ------- [0:0 7:0 29 7] [60] 2 0
s 1.502857143 _3_ AGT  --- 165 cbr 512 [0 0 0 0] ------- [3:0 8:0 32 0] [55] 0 0
s 1.505714286 _0_ AGT  --- 166 cbr 512 [0 0 0 0] ------- [0:0 7:0 32 0] [110] 0 0
s 1.512000000 _3_ AGT  --- 167 cbr 512 [0 0 0 0] ------- [3:0 8:0 32 0] [56] 0 0
s 1.514857143 _0_ AGT  --- 168 cbr 512 [0 0 0 0] ------- [0:0 7:0 32 0] [111] 0 0
r 1.515231892 _7_ AGT  --- 68 cbr 532 [13a 7 4 800] ------- [0:0 7:0 29 7] [61] 2 0
r 1.521094638 _8_ AGT  --- 91 cbr 532 [13a 8 4 800] ------- [3:0 8:0 29 8] [18] 2 0
s 1.521142857 _3_ AGT  --- 169 cbr 512 [0 0 0 0] ------- [3:0 8:0 32 0] [57] 0 0
s 1.524000000 _0_ AGT  --- 170 cbr 512 [0 0 0 0] ------- [0:0 7:0 32 0] [112] 0 0
r 1.527337541 _7_ AGT  --- 70 cbr 532 [13a 7 4 800] ------- [0:0 7:0 29 7] [62] 2 0
s 1.530285714 _3_ AGT  --- 171 cbr 512 [0 0 0 0] ------- [3:0 8:0 32 0] [58] 0 0
s 1.533142857 _0_ AGT  --- 172 cbr 512 [0 0 0 0] ------- [0:0 7:0 32 0] [113] 0 0
D 1.533167857 _0_ IFQ  --- 172 cbr 532 [0 4 0 800] ------- [0:0 7:0 30 4] [113] 0 0
s 1.539428571 _3_ AGT  --- 173 cbr 512 [0 0 0 0] ------- [3:0 8:0 32 0] [59] 0 0
r 1.539527067 _7_ AGT  --- 72 cbr 532 [13a 7 4 800] ------- [0:0 7:0 29 7] [63] 2 0
s 1.542285714 _0_ AGT  --- 174 cbr 512 [0 0 0 0] ------- [0:0 7:0 32 0] [114] 0 0
s 1.548571429 _3_ AGT  --- 175 cbr 512 [0 0 0 0] ------- [3:0 8:0 32 0] [60] 0 0
s 1.551428571 _0_ AGT  --- 176 cbr 512 [0 0 0 0] ------- [0:0 7:0 32 0] [115] 0 0
D 1.551453571 _0_ IFQ  --- 176 cbr 532 [0 4 0 800] ------- [0:0 7:0 30 4] [115] 0 0
s 1.557714286 _3_ AGT  --- 177 cbr 512 [0 0 0 0] ------- [3:0 8:0 32 0] [61] 0 0
r 1.557908448 _8_ AGT  --- 93 cbr 532 [13a 8 4 800] ------- [3:0 8:0 29 8] [19] 2 0
s 1.560571429 _0_ AGT  --- 178 cbr 512 [0 0 0 0] ------- [0:0 7:0 32 0] [116] 0 0
r 1.563851350 _7_ AGT  --- 74 cbr 532 [13a 7 4 800] ------- [0:0 7:0 29 7] [64] 2 0
s 1.566857143 _3_ AGT  --- 179 cbr 512 [0 0 0 0] ------- [3:0 8:0 32 0] [62] 0 0
s 1.569714286 _0_ AGT  --- 180 cbr 512 [0 0 0 0] ------- [0:0 7:0 32 0] [117] 0 0
D 1.569739286 _0_ IFQ  --- 180 cbr 532 [0 4 0 800] ------- [0:0 7:0 30 4] [117] 0 0
s 1.576000000 _3_ AGT  --- 181 cbr 512 [0 0 0 0] ------- [3:0 8:0 32 0] [63] 0 0
s 1.578857143 _0_ AGT  --- 182 cbr 512 [0 0 0 0] ------- [0:0 7:0 32 0] [118] 0 0
s 1.585142857 _3_ AGT  --- 183 cbr 512 [0 0 0 0] ------- [3:0 8:0 32 0] [64] 0 0
r 1.587815712 _8_ AGT  --- 95 cbr 532 [13a 8 4 800] ------- [3:0 8:0 29 8] [20] 2 0
s 1.588000000 _0_ AGT  --- 184 cbr 512 [0 0 0 0] ------- [0:0 7:0 32 0] [119] 0 0
r 1.593758615 _7_ AGT  --- 76 cbr 532 [13a 7 4 800] ------- [0:0 7:0 29 7] [65] 2 0
s 1.594285714 _3_ AGT  --- 185 cbr 512 [0 0 0 0] ------- [3:0 8:0 32 0] [65] 0 0
s 1.597142857 _0_ AGT  --- 186 cbr 512 [0 0 0 0] ------- [0:0 7:0 32 0] [120] 0 0
D 1.597167857 _0_ IFQ  --- 186 cbr 532 [0 4 0 800] ------- [0:0 7:0 30 4] [120] 0 0
r 1.599701597 _7_ AGT  --- 78 cbr 532 [13a 7 4 800] ------- [0:0 7:0 29 7] [66] 2 0
s 1.603428571 _3_ AGT  --- 187 cbr 512 [0 0 0 0] ------- [3:0 8:0 32 0] [66] 0 0
s 1.606285714 _0_ AGT  --- 188 cbr 512 [0 0 0 0] ------- [0:0 7:0 32 0] [121] 0 0
D 1.606310714 _0_ IFQ  --- 188 cbr 532 [0 4 0 800] ------- [0:0 7:0 30 4] [121] 0 0
s 1.612571429 _3_ AGT  --- 189 cbr 512 [0 0 0 0] ------- [3:0 8:0 32 0] [67] 0 0
s 1.615428571 _0_ AGT  --- 190 cbr 512 [0 0 0 0] ------- [0:0 7:0 32 0] [122] 0 0
D 1.615453571 _0_ IFQ  --- 190 cbr 532 [0 4 0 800] ------- [0:0 7:0 30 4] [122] 0 0
r 1.617792098 _8_ AGT  --- 97 cbr 532 [13a 8 4 800] ------- [3:0 8:0 29 8] [21] 2 0
s 1.621714286 _3_ AGT  --- 191 cbr 512 [0 0 0 0] ------- [3:0 8:0 32 0] [68] 0 0
r 1.623574765 _8_ AGT  --- 99 cbr 532 [13a 8 4 800] ------- [3:0 8:0 29 8] [22] 2 0
s 1.624571429 _0_ AGT  --- 192 cbr 512 [0 0 0 0] ------- [0:0 7:0 32 0] [123] 0 0
D 1.624596429 _0_ IFQ  --- 192 cbr 532 [0 4 0 800] ------- [0:0 7:0 30 4] [123] 0 0
s 1.630857143 _3_ AGT  --- 193 cbr 512 [0 0 0 0] ------- [3:0 8:0 32 0] [69] 0 0
s 1.633714286 _0_ AGT  --- 194 cbr 512 [0 0 0 0] ------- [0:0 7:0 32 0] [124] 0 0
D 1.633739286 _0_ IFQ  --- 194 cbr 532 [0 4 0 800] ------- [0:0 7:0 30 4] [124] 0 0
s 1.640000000 _3_ AGT  --- 195 cbr 512 [0 0 0 0] ------- [3:0 8:0 32 0] [70] 0 0
s 1.642857143 _0_ AGT  --- 196 cbr 512 [0 0 0 0] ------- [0:0 7:0 32 0] [125] 0 0
s 1.649142857 _3_ AGT  --- 197 cbr 512 [0 0 0 0] ------- [3:0 8:0 32 0] [71] 0 0
s 1.652000000 _0_ AGT  --- 198 cbr 512 [0 0 0 0] ------- [0:0 7:0 32 0] [126] 0 0
r 1.653201961 _8_ AGT  --- 101 cbr 532 [13a 8 4 800] ------- [3:0 8:0 29 8] [23] 2 0
s 1.658285714 _3_ AGT  --- 199 cbr 512 [0 0 0 0] ------- [3:0 8:0 32 0] [72] 0 0
r 1.659084863 _7_ AGT  --- 80 cbr 532 [13a 7 4 800] ------- [0:0 7:0 29 7] [67] 2 0
s 1.661142857 _0_ AGT  --- 200 cbr 512 [0 0 0 0] ------- [0:0 7:0 32 0] [127] 0 0
s 1.667428571 _3_ AGT  --- 201 cbr 512 [0 0 0 0] ------- [3:0 8:0 32 0] [73] 0 0
s 1.670285714 _0_ AGT  --- 202 cbr 512 [0 0 0 0] ------- [0:0 7:0 32 0] [128] 0 0
D 1.670310714 _0_ IFQ  --- 202 cbr 532 [0 4 0 800] ------- [0:0 7:0 30 4] [128] 0 0
r 1.671053716 _7_ AGT  --- 82 cbr 532 [13a 7 4 800] ------- [0:0 7:0 29 7] [68] 2 0
s 1.676571429 _3_ AGT  --- 203 cbr 512 [0 0 0 0] ------- [3:0 8:0 32 0] [74] 0 0
r 1.676836697 _7_ AGT  --- 84 cbr 532 [13a 7 4 800] ------- [0:0 7:0 29 7] [69] 2 0
s 1.679428571 _0_ AGT  --- 204 cbr 512 [0 0 0 0] ------- [0:0 7:0 32 0] [129] 0 0
D 1.679453571 _0_ IFQ  --- 204 cbr 532 [0 4 0 800] ------- [0:0 7:0 30 4] [129] 0 0
r 1.682999442 _8_ AGT  --- 103 cbr 532 [13a 8 4 800] ------- [3:0 8:0 29 8] [24] 2 0
s 1.685714286 _3_ AGT  --- 205 cbr 512 [0 0 0 0] ------- [3:0 8:0 32 0] [75] 0 0
D 1.685739286 _3_ IFQ  --- 205 cbr 532 [0 4 3 800] ------- [3:0 8:0 30 4] [75] 0 0
s 1.688571429 _0_ AGT  --- 206 cbr 512 [0 0 0 0] ------- [0:0 7:0 32 0] [130] 0 0
D 1.688596429 _0_ IFQ  --- 206 cbr 532 [0 4 0 800] ------- [0:0 7:0 30 4] [130] 0 0
s 1.694857143 _3_ AGT  --- 207 cbr 512 [0 0 0 0] ------- [3:0 8:0 32 0] [76] 0 0
s 1.697714286 _0_ AGT  --- 208 cbr 512 [0 0 0 0] ------- [0:0 7:0 32 0] [131] 0 0
s 1.704000000 _3_ AGT  --- 209 cbr 512 [0 0 0 0] ------- [3:0 8:0 32 0] [77] 0 0
s 1.706857143 _0_ AGT  --- 210 cbr 512 [0 0 0 0] ------- [0:0 7:0 32 0] [132] 0 0
D 1.706882143 _0_ IFQ  --- 210 cbr 532 [0 4 0 800] ------- [0:0 7:0 30 4] [132] 0 0
r 1.707032344 _8_ AGT  --- 105 cbr 532 [13a 8 4 800] ------- [3:0 8:0 29 8] [25] 2 0
r 1.712955247 _7_ AGT  --- 86 cbr 532 [13a 7 4 800] ------- [0:0 7:0 29 7] [70] 2 0
s 1.713142857 _3_ AGT  --- 211 cbr 512 [0 0 0 0] ------- [3:0 8:0 32 0] [78] 0 0
D 1.713167857 _3_ IFQ  --- 211 cbr 532 [0 4 3 800] ------- [3:0 8:0 30 4] [78] 0 0
s 1.716000000 _0_ AGT  --- 212 cbr 512 [0 0 0 0] ------- [0:0 7:0 32 0] [133] 0 0
D 1.716025000 _0_ IFQ  --- 212 cbr 532 [0 4 0 800] ------- [0:0 7:0 30 4] [133] 0 0
r 1.718857992 _8_ AGT  --- 107 cbr 532 [13a 8 4 800] ------- [3:0 8:0 29 8] [26] 2 0
s 1.722285714 _3_ AGT  --- 213 cbr 512 [0 0 0 0] ------- [3:0 8:0 32 0] [79] 0 0
D 1.722310714 _3_ IFQ  --- 213 cbr 532 [0 4 3 800] ------- [3:0 8:0 30 4] [79] 0 0
s 1.725142857 _0_ AGT  --- 214 cbr 512 [0 0 0 0] ------- [0:0 7:0 32 0] [134] 0 0
D 1.725167857 _0_ IFQ  --- 214 cbr 532 [0 4 0 800] ------- [0:0 7:0 30 4] [134] 0 0
r 1.731107666 _7_ AGT  --- 88 cbr 532 [13a 7 4 800] ------- [0:0 7:0 29 7] [71] 2 0
s 1.731428571 _3_ AGT  --- 215 cbr 512 [0 0 0 0] ------- [3:0 8:0 32 0] [80] 0 0
D 1.731453571 _3_ IFQ  --- 215 cbr 532 [0 4 3 800] ------- [3:0 8:0 30 4] [80] 0 0
s 1.734285714 _0_ AGT  --- 216 cbr 512 [0 0 0 0] ------- [0:0 7:0 32 0] [135] 0 0
s 1.740571429 _3_ AGT  --- 217 cbr 512 [0 0 0 0] ------- [3:0 8:0 32 0] [81] 0 0
s 1.743428571 _0_ AGT  --- 218 cbr 512 [0 0 0 0] ------- [0:0 7:0 32 0] [136] 0 0
D 1.743453571 _0_ IFQ  --- 218 cbr 532 [0 4 0 800] ------- [0:0 7:0 30 4] [136] 0 0
s 1.749714286 _3_ AGT  --- 219 cbr 512 [0 0 0 0] ------- [3:0 8:0 32 0] [82] 0 0
s 1.752571429 _0_ AGT  --- 220 cbr 512 [0 0 0 0] ------- [0:0 7:0 32 0] [137] 0 0
D 1.752596429 _0_ IFQ  --- 220 cbr 532 [0 4 0 800] ------- [0:0 7:0 30 4] [137] 0 0
s 1.758857143 _3_ AGT  --- 221 cbr 512 [0 0 0 0] ------- [3:0 8:0 32 0] [83] 0 0
s 1.761714286 _0_ AGT  --- 222 cbr 512 [0 0 0 0] ------- [0:0 7:0 32 0] [138] 0 0
s 1.768000000 _3_ AGT  --- 223 cbr 512 [0 0 0 0] ------- [3:0 8:0 32 0] [84] 0 0
s 1.770857143 _0_ AGT  --- 224 cbr 512 [0 0 0 0] ------- [0:0 7:0 32 0] [139] 0 0
D 1.770882143 _0_ IFQ  --- 224 cbr 532 [0 4 0 800] ------- [0:0 7:0 30 4] [139] 0 0
r 1.772406373 _8_ AGT  --- 109 cbr 532 [13a 8 4 800] ------- [3:0 8:0 29 8] [27] 2 0
s 1.777142857 _3_ AGT  --- 225 cbr 512 [0 0 0 0] ------- [3:0 8:0 32 0] [85] 0 0
s 1.780000000 _0_ AGT  --- 226 cbr 512 [0 0 0 0] ------- [0:0 7:0 32 0] [140] 0 0
r 1.784495811 _8_ AGT  --- 111 cbr 532 [13a 8 4 800] ------- [3:0 8:0 29 8] [28] 2 0
s 1.786285714 _3_ AGT  --- 227 cbr 512 [0 0 0 0] ------- [3:0 8:0 32 0] [86] 0 0
D 1.786310714 _3_ IFQ  --- 227 cbr 532 [0 4 3 800] ------- [3:0 8:0 30 4] [86] 0 0
s 1.789142857 _0_ AGT  --- 228 cbr 512 [0 0 0 0] ------- [0:0 7:0 32 0] [141] 0 0
D 1.789167857 _0_ IFQ  --- 228 cbr 532 [0 4 0 800] ------- [0:0 7:0 30 4] [141] 0 0
r 1.790838477 _8_ AGT  --- 113 cbr 532 [13a 8 4 800] ------- [3:0 8:0 29 8] [29] 2 0
s 1.795428571 _3_ AGT  --- 229 cbr 512 [0 0 0 0] ------- [3:0 8:0 32 0] [87] 0 0
D 1.795453571 _3_ IFQ  --- 229 cbr 532 [0 4 3 800] ------- [3:0 8:0 30 4] [87] 0 0
r 1.796601380 _7_ AGT  --- 90 cbr 532 [13a 7 4 800] ------- [0:0 7:0 29 7] [72] 2 0
s 1.798285714 _0_ AGT  --- 230 cbr 512 [0 0 0 0] ------- [0:0 7:0 32 0] [142] 0 0
D 1.798310714 _0_ IFQ  --- 230 cbr 532 [0 4 0 800] ------- [0:0 7:0 30 4] [142] 0 0
r 1.802404125 _8_ AGT  --- 115 cbr 532 [13a 8 4 800] ------- [3:0 8:0 29 8] [30] 2 0
s 1.804571429 _3_ AGT  --- 231 cbr 512 [0 0 0 0] ------- [3:0 8:0 32 0] [88] 0 0
D 1.804596429 _3_ IFQ  --- 231 cbr 532 [0 4 3 800] ------- [3:0 8:0 30 4] [88] 0 0
s 1.807428571 _0_ AGT  --- 232 cbr 512 [0 0 0 0] ------- [0:0 7:0 32 0] [143] 0 0
D 1.807453571 _0_ IFQ  --- 232 cbr 532 [0 4 0 800] ------- [0:0 7:0 30 4] [143] 0 0
r 1.808586792 _8_ AGT  --- 117 cbr 532 [13a 8 4 800] ------- [3:0 8:0 29 8] [31] 2 0
s 1.813714286 _3_ AGT  --- 233 cbr 512 [0 0 0 0] ------- [3:0 8:0 32 0] [89] 0 0